<?xml version="1.0" encoding="UTF-8"?>

<!-- generated on 2025-04-07 16:37:03 by Eclipse SUMO sumo Version 1.22.0
<sumoConfiguration xmlns:xsi="http://www.w3.org/2001/XMLSchema-instance" xsi:noNamespaceSchemaLocation="http://sumo.dlr.de/xsd/sumoConfiguration.xsd">

    <input>
        <net-file value="C:/Users/Vaideeswaran/Downloads/tr_103766v010101p0/urban_60kmph_200vh/urban_60kmph.net.xml"/>
        <route-files value="C:/Users/Vaideeswaran/Downloads/tr_103766v010101p0/urban_60kmph_200vh/urban_200vh.rou.xml"/>
        <additional-files value="C:/Users/Vaideeswaran/Downloads/tr_103766v010101p0/urban_60kmph_200vh/vtypes.add.xml"/>
    </input>

    <output>
        <tripinfo-output value="C:/Users/Vaideeswaran/Downloads/tr_103766v010101p0/urban_60kmph_200vh/tripinfos.xml"/>
    </output>

    <report>
        <log value="C:/Users/Vaideeswaran/Downloads/tr_103766v010101p0/urban_60kmph_200vh/log.txt"/>
    </report>

    <traci_server>
        <remote-port value="50721"/>
    </traci_server>

</sumoConfiguration>
-->

<tripinfos xmlns:xsi="http://www.w3.org/2001/XMLSchema-instance" xsi:noNamespaceSchemaLocation="http://sumo.dlr.de/xsd/tripinfo_file.xsd">
    <tripinfo id="145" depart="0.00" departLane="n1_2" departPos="54.98" departSpeed="0.00" departDelay="0.00" arrival="220.00" arrivalLane="e1_2" arrivalPos="412.50" arrivalSpeed="9.57" duration="220.00" routeLength="3289.38" waitingTime="0.00" waitingCount="0" stopTime="0.00" timeLoss="42.23" rerouteNo="0" devices="tripinfo_145" vType="VM_standard_car" speedFactor="1.14" vaporized=""/>
    <tripinfo id="094" depart="0.00" departLane="Aw_2" departPos="72.83" departSpeed="0.00" departDelay="0.00" arrival="222.00" arrivalLane="s2_2" arrivalPos="227.00" arrivalSpeed="15.62" duration="222.00" routeLength="3110.82" waitingTime="8.00" waitingCount="1" stopTime="0.00" timeLoss="47.50" rerouteNo="0" devices="tripinfo_094" vType="VM_standard_car" speedFactor="1.09" vaporized=""/>
    <tripinfo id="159" depart="2.00" departLane="Aw_1" departPos="197.18" departSpeed="0.00" departDelay="2.00" arrival="227.00" arrivalLane="n2_2" arrivalPos="227.00" arrivalSpeed="14.25" duration="225.00" routeLength="3127.11" waitingTime="11.00" waitingCount="1" stopTime="0.00" timeLoss="56.52" rerouteNo="0" devices="tripinfo_159" vType="VM_standard_car" speedFactor="1.14" vaporized=""/>
    <tripinfo id="000" depart="0.00" departLane="BD_1" departPos="292.12" departSpeed="0.00" departDelay="0.00" arrival="228.00" arrivalLane="n3_2" arrivalPos="228.50" arrivalSpeed="16.71" duration="228.00" routeLength="3081.72" waitingTime="13.00" waitingCount="2" stopTime="0.00" timeLoss="50.86" rerouteNo="0" devices="tripinfo_000" vType="VM_standard_car" speedFactor="1.06" vaporized=""/>
    <tripinfo id="108" depart="0.00" departLane="eB_1" departPos="222.98" departSpeed="0.00" departDelay="0.00" arrival="231.00" arrivalLane="n2_1" arrivalPos="227.00" arrivalSpeed="10.02" duration="231.00" routeLength="3124.08" waitingTime="14.00" waitingCount="1" stopTime="0.00" timeLoss="50.61" rerouteNo="0" devices="tripinfo_108" vType="VM_standard_car" speedFactor="1.06" vaporized=""/>
    <tripinfo id="062" depart="0.00" departLane="Cw_2" departPos="191.93" departSpeed="0.00" departDelay="0.00" arrival="235.00" arrivalLane="s3_2" arrivalPos="228.50" arrivalSpeed="16.88" duration="235.00" routeLength="3158.44" waitingTime="9.00" waitingCount="1" stopTime="0.00" timeLoss="43.18" rerouteNo="0" devices="tripinfo_062" vType="VM_standard_car" speedFactor="1.02" vaporized=""/>
    <tripinfo id="155" depart="0.00" departLane="w1_1" departPos="32.34" departSpeed="0.00" departDelay="0.00" arrival="235.00" arrivalLane="s1_2" arrivalPos="228.50" arrivalSpeed="18.01" duration="235.00" routeLength="3160.09" waitingTime="23.00" waitingCount="1" stopTime="0.00" timeLoss="63.75" rerouteNo="0" devices="tripinfo_155" vType="VM_standard_car" speedFactor="1.12" vaporized=""/>
    <tripinfo id="192" depart="2.00" departLane="AC_2" departPos="341.38" departSpeed="0.00" departDelay="2.00" arrival="235.00" arrivalLane="e3_2" arrivalPos="411.50" arrivalSpeed="17.64" duration="233.00" routeLength="3181.32" waitingTime="14.00" waitingCount="1" stopTime="0.00" timeLoss="53.91" rerouteNo="0" devices="tripinfo_192" vType="VM_standard_car" speedFactor="1.10" vaporized=""/>
    <tripinfo id="129" depart="0.00" departLane="BD_1" departPos="196.39" departSpeed="0.00" departDelay="0.00" arrival="237.00" arrivalLane="e2_2" arrivalPos="410.00" arrivalSpeed="15.87" duration="237.00" routeLength="3512.51" waitingTime="0.00" waitingCount="0" stopTime="0.00" timeLoss="24.84" rerouteNo="0" devices="tripinfo_129" vType="VM_standard_car" speedFactor="1.01" vaporized=""/>
    <tripinfo id="086" depart="0.00" departLane="Ds_1" departPos="183.08" departSpeed="0.00" departDelay="0.00" arrival="238.00" arrivalLane="e1_2" arrivalPos="412.50" arrivalSpeed="16.36" duration="238.00" routeLength="3155.71" waitingTime="1.00" waitingCount="1" stopTime="0.00" timeLoss="43.29" rerouteNo="0" devices="tripinfo_086" vType="VM_standard_car" speedFactor="1.00" vaporized=""/>
    <tripinfo id="076" depart="0.00" departLane="Be_2" departPos="0.19" departSpeed="0.00" departDelay="0.00" arrival="241.00" arrivalLane="n3_2" arrivalPos="228.50" arrivalSpeed="16.34" duration="241.00" routeLength="3354.49" waitingTime="5.00" waitingCount="2" stopTime="0.00" timeLoss="42.95" rerouteNo="0" devices="tripinfo_076" vType="VM_standard_car" speedFactor="1.03" vaporized=""/>
    <tripinfo id="043" depart="0.00" departLane="wC_2" departPos="187.40" departSpeed="0.00" departDelay="0.00" arrival="243.00" arrivalLane="s2_1" arrivalPos="227.00" arrivalSpeed="11.75" duration="243.00" routeLength="3166.24" waitingTime="19.00" waitingCount="1" stopTime="0.00" timeLoss="56.10" rerouteNo="0" devices="tripinfo_043" vType="VM_standard_car" speedFactor="1.04" vaporized=""/>
    <tripinfo id="063" depart="0.00" departLane="Aw_2" departPos="205.30" departSpeed="0.00" departDelay="0.00" arrival="243.00" arrivalLane="w1_1" arrivalPos="412.50" arrivalSpeed="16.22" duration="243.00" routeLength="3499.40" waitingTime="0.00" waitingCount="0" stopTime="0.00" timeLoss="26.90" rerouteNo="0" devices="tripinfo_063" vType="VM_standard_car" speedFactor="0.99" vaporized=""/>
    <tripinfo id="142" depart="1.00" departLane="nA_2" departPos="116.86" departSpeed="0.00" departDelay="1.00" arrival="243.00" arrivalLane="s3_1" arrivalPos="228.50" arrivalSpeed="14.81" duration="242.00" routeLength="3204.36" waitingTime="0.00" waitingCount="0" stopTime="0.00" timeLoss="30.40" rerouteNo="0" devices="tripinfo_142" vType="VM_standard_car" speedFactor="0.94" vaporized=""/>
    <tripinfo id="003" depart="0.00" departLane="cS_1" departPos="101.48" departSpeed="0.00" departDelay="0.00" arrival="244.00" arrivalLane="e2_2" arrivalPos="410.00" arrivalSpeed="17.37" duration="244.00" routeLength="3448.17" waitingTime="6.00" waitingCount="1" stopTime="0.00" timeLoss="50.19" rerouteNo="0" devices="tripinfo_003" vType="VM_standard_car" speedFactor="1.08" vaporized=""/>
    <tripinfo id="095" depart="0.00" departLane="e3_2" departPos="350.09" departSpeed="0.00" departDelay="0.00" arrival="247.00" arrivalLane="n3_2" arrivalPos="228.50" arrivalSpeed="17.05" duration="247.00" routeLength="2813.77" waitingTime="23.00" waitingCount="3" stopTime="0.00" timeLoss="83.03" rerouteNo="0" devices="tripinfo_095" vType="VM_standard_car" speedFactor="1.06" vaporized=""/>
    <tripinfo id="128" depart="0.00" departLane="CD_1" departPos="159.85" departSpeed="0.00" departDelay="0.00" arrival="247.00" arrivalLane="s3_2" arrivalPos="228.50" arrivalSpeed="17.81" duration="247.00" routeLength="3156.74" waitingTime="30.00" waitingCount="1" stopTime="0.00" timeLoss="72.64" rerouteNo="0" devices="tripinfo_128" vType="VM_standard_car" speedFactor="1.12" vaporized=""/>
    <tripinfo id="166" depart="0.00" departLane="Be_2" departPos="135.30" departSpeed="0.00" departDelay="0.00" arrival="248.00" arrivalLane="n1_2" arrivalPos="228.50" arrivalSpeed="11.82" duration="248.00" routeLength="3230.35" waitingTime="9.00" waitingCount="1" stopTime="0.00" timeLoss="50.54" rerouteNo="0" devices="tripinfo_166" vType="VM_standard_car" speedFactor="1.00" vaporized=""/>
    <tripinfo id="022" depart="0.00" departLane="w1_2" departPos="235.79" departSpeed="0.00" departDelay="0.00" arrival="249.00" arrivalLane="n1_2" arrivalPos="228.50" arrivalSpeed="7.48" duration="249.00" routeLength="3462.35" waitingTime="0.00" waitingCount="0" stopTime="0.00" timeLoss="32.40" rerouteNo="0" devices="tripinfo_022" vType="VM_standard_car" speedFactor="0.97" vaporized=""/>
    <tripinfo id="154" depart="1.00" departLane="cS_2" departPos="355.49" departSpeed="0.00" departDelay="1.00" arrival="250.00" arrivalLane="s1_1" arrivalPos="228.50" arrivalSpeed="17.11" duration="249.00" routeLength="3348.22" waitingTime="13.00" waitingCount="2" stopTime="0.00" timeLoss="56.42" rerouteNo="0" devices="tripinfo_154" vType="VM_standard_car" speedFactor="1.06" vaporized=""/>
    <tripinfo id="026" depart="0.00" departLane="n2_2" departPos="212.26" departSpeed="0.00" departDelay="0.00" arrival="254.00" arrivalLane="s3_1" arrivalPos="228.50" arrivalSpeed="15.06" duration="254.00" routeLength="3104.96" waitingTime="7.00" waitingCount="1" stopTime="0.00" timeLoss="45.29" rerouteNo="0" devices="tripinfo_026" vType="VM_standard_car" speedFactor="0.92" vaporized=""/>
    <tripinfo id="075" depart="0.00" departLane="sD_1" departPos="192.82" departSpeed="0.00" departDelay="0.00" arrival="254.00" arrivalLane="DB_1" arrivalPos="410.00" arrivalSpeed="15.65" duration="254.00" routeLength="3699.66" waitingTime="0.00" waitingCount="0" stopTime="0.00" timeLoss="25.74" rerouteNo="0" devices="tripinfo_075" vType="VM_standard_car" speedFactor="0.98" vaporized=""/>
    <tripinfo id="078" depart="0.00" departLane="Ds_2" departPos="199.43" departSpeed="0.00" departDelay="0.00" arrival="255.00" arrivalLane="e3_1" arrivalPos="411.50" arrivalSpeed="16.74" duration="255.00" routeLength="3500.34" waitingTime="2.00" waitingCount="1" stopTime="0.00" timeLoss="41.14" rerouteNo="0" devices="tripinfo_078" vType="VM_standard_car" speedFactor="1.01" vaporized=""/>
    <tripinfo id="079" depart="1.00" departLane="wA_2" departPos="58.81" departSpeed="0.00" departDelay="1.00" arrival="257.00" arrivalLane="s1_2" arrivalPos="228.50" arrivalSpeed="18.02" duration="256.00" routeLength="3129.97" waitingTime="29.00" waitingCount="3" stopTime="0.00" timeLoss="80.31" rerouteNo="0" devices="tripinfo_079" vType="VM_standard_car" speedFactor="1.09" vaporized=""/>
    <tripinfo id="172" depart="0.00" departLane="AC_2" departPos="343.19" departSpeed="0.00" departDelay="0.00" arrival="258.00" arrivalLane="nA_1" arrivalPos="411.00" arrivalSpeed="14.00" duration="258.00" routeLength="3133.61" waitingTime="5.00" waitingCount="2" stopTime="0.00" timeLoss="39.46" rerouteNo="0" devices="tripinfo_172" vType="VM_standard_car" speedFactor="0.89" vaporized=""/>
    <tripinfo id="132" depart="0.00" departLane="sD_2" departPos="88.55" departSpeed="0.00" departDelay="0.00" arrival="260.00" arrivalLane="sC_1" arrivalPos="410.00" arrivalSpeed="15.61" duration="260.00" routeLength="3620.93" waitingTime="0.00" waitingCount="0" stopTime="0.00" timeLoss="30.50" rerouteNo="0" devices="tripinfo_132" vType="VM_standard_car" speedFactor="0.96" vaporized=""/>
    <tripinfo id="036" depart="1.00" departLane="n2_2" departPos="96.56" departSpeed="0.00" departDelay="1.00" arrival="261.00" arrivalLane="n3_2" arrivalPos="228.50" arrivalSpeed="15.22" duration="260.00" routeLength="3426.14" waitingTime="13.00" waitingCount="1" stopTime="0.00" timeLoss="42.82" rerouteNo="0" devices="tripinfo_036" vType="VM_standard_car" speedFactor="0.97" vaporized=""/>
    <tripinfo id="030" depart="0.00" departLane="n3_2" departPos="146.61" departSpeed="0.00" departDelay="0.00" arrival="263.00" arrivalLane="w1_2" arrivalPos="412.50" arrivalSpeed="18.80" duration="263.00" routeLength="3411.82" waitingTime="22.00" waitingCount="5" stopTime="0.00" timeLoss="86.59" rerouteNo="0" devices="tripinfo_030" vType="VM_standard_car" speedFactor="1.18" vaporized=""/>
    <tripinfo id="054" depart="0.00" departLane="nA_2" departPos="41.73" departSpeed="0.00" departDelay="0.00" arrival="264.00" arrivalLane="e2_1" arrivalPos="410.00" arrivalSpeed="15.70" duration="264.00" routeLength="3469.48" waitingTime="7.00" waitingCount="2" stopTime="0.00" timeLoss="52.05" rerouteNo="0" devices="tripinfo_054" vType="VM_standard_car" speedFactor="1.00" vaporized=""/>
    <tripinfo id="165" depart="2.00" departLane="De_1" departPos="166.48" departSpeed="0.00" departDelay="2.00" arrival="264.00" arrivalLane="n2_2" arrivalPos="227.00" arrivalSpeed="14.67" duration="262.00" routeLength="3004.88" waitingTime="16.00" waitingCount="3" stopTime="0.00" timeLoss="60.77" rerouteNo="0" devices="tripinfo_165" vType="VM_standard_car" speedFactor="0.91" vaporized=""/>
    <tripinfo id="171" depart="0.00" departLane="BD_2" departPos="33.69" departSpeed="0.00" departDelay="0.00" arrival="265.00" arrivalLane="n1_1" arrivalPos="228.50" arrivalSpeed="7.33" duration="265.00" routeLength="3311.95" waitingTime="3.00" waitingCount="1" stopTime="0.00" timeLoss="39.48" rerouteNo="0" devices="tripinfo_171" vType="VM_standard_car" speedFactor="0.90" vaporized=""/>
    <tripinfo id="194" depart="0.00" departLane="e1_2" departPos="265.75" departSpeed="0.00" departDelay="0.00" arrival="265.00" arrivalLane="n1_2" arrivalPos="228.50" arrivalSpeed="4.57" duration="265.00" routeLength="3292.68" waitingTime="14.00" waitingCount="3" stopTime="0.00" timeLoss="65.15" rerouteNo="0" devices="tripinfo_194" vType="VM_standard_car" speedFactor="1.00" vaporized=""/>
    <tripinfo id="197" depart="0.00" departLane="BA_1" departPos="178.90" departSpeed="0.00" departDelay="0.00" arrival="268.00" arrivalLane="w2_1" arrivalPos="410.00" arrivalSpeed="14.53" duration="268.00" routeLength="3334.66" waitingTime="3.00" waitingCount="1" stopTime="0.00" timeLoss="34.01" rerouteNo="0" devices="tripinfo_197" vType="VM_standard_car" speedFactor="0.87" vaporized=""/>
    <tripinfo id="196" depart="1.00" departLane="wA_2" departPos="70.01" departSpeed="0.00" departDelay="1.00" arrival="269.00" arrivalLane="w2_2" arrivalPos="410.00" arrivalSpeed="16.42" duration="268.00" routeLength="3118.33" waitingTime="30.00" waitingCount="4" stopTime="0.00" timeLoss="83.63" rerouteNo="0" devices="tripinfo_196" vType="VM_standard_car" speedFactor="1.03" vaporized=""/>
    <tripinfo id="025" depart="0.00" departLane="DB_1" departPos="244.45" departSpeed="0.00" departDelay="0.00" arrival="270.00" arrivalLane="s2_1" arrivalPos="227.00" arrivalSpeed="14.51" duration="270.00" routeLength="3058.27" waitingTime="9.00" waitingCount="1" stopTime="0.00" timeLoss="53.54" rerouteNo="0" devices="tripinfo_025" vType="VM_standard_car" speedFactor="0.87" vaporized=""/>
    <tripinfo id="089" depart="0.00" departLane="An_2" departPos="64.78" departSpeed="0.00" departDelay="0.00" arrival="273.00" arrivalLane="w3_1" arrivalPos="411.50" arrivalSpeed="16.98" duration="273.00" routeLength="3290.58" waitingTime="38.00" waitingCount="1" stopTime="0.00" timeLoss="76.79" rerouteNo="0" devices="tripinfo_089" vType="VM_standard_car" speedFactor="1.02" vaporized=""/>
    <tripinfo id="093" depart="0.00" departLane="e2_2" departPos="80.09" departSpeed="0.00" departDelay="0.00" arrival="273.00" arrivalLane="e1_1" arrivalPos="412.50" arrivalSpeed="14.52" duration="273.00" routeLength="3446.39" waitingTime="2.00" waitingCount="1" stopTime="0.00" timeLoss="45.36" rerouteNo="0" devices="tripinfo_093" vType="VM_standard_car" speedFactor="0.92" vaporized=""/>
    <tripinfo id="157" depart="1.00" departLane="w3_2" departPos="137.33" departSpeed="0.00" departDelay="1.00" arrival="274.00" arrivalLane="s3_1" arrivalPos="228.50" arrivalSpeed="17.45" duration="273.00" routeLength="3415.45" waitingTime="23.00" waitingCount="3" stopTime="0.00" timeLoss="80.61" rerouteNo="0" devices="tripinfo_157" vType="VM_standard_car" speedFactor="1.08" vaporized=""/>
    <tripinfo id="168" depart="0.00" departLane="wA_1" departPos="185.19" departSpeed="0.00" departDelay="0.00" arrival="274.00" arrivalLane="w2_2" arrivalPos="410.00" arrivalSpeed="16.21" duration="274.00" routeLength="2991.86" waitingTime="39.00" waitingCount="4" stopTime="0.00" timeLoss="89.26" rerouteNo="0" devices="tripinfo_168" vType="VM_standard_car" speedFactor="0.98" vaporized=""/>
    <tripinfo id="109" depart="1.00" departLane="nA_2" departPos="71.58" departSpeed="0.00" departDelay="1.00" arrival="275.00" arrivalLane="w2_1" arrivalPos="410.00" arrivalSpeed="15.47" duration="274.00" routeLength="3281.05" waitingTime="30.00" waitingCount="2" stopTime="0.00" timeLoss="65.40" rerouteNo="0" devices="tripinfo_109" vType="VM_standard_car" speedFactor="0.96" vaporized=""/>
    <tripinfo id="048" depart="0.00" departLane="De_1" departPos="209.95" departSpeed="0.00" departDelay="0.00" arrival="276.00" arrivalLane="nA_1" arrivalPos="411.00" arrivalSpeed="14.38" duration="276.00" routeLength="3132.49" waitingTime="6.00" waitingCount="3" stopTime="0.00" timeLoss="56.00" rerouteNo="0" devices="tripinfo_048" vType="VM_standard_car" speedFactor="0.88" vaporized=""/>
    <tripinfo id="072" depart="0.00" departLane="s3_1" departPos="202.73" departSpeed="0.00" departDelay="0.00" arrival="277.00" arrivalLane="w3_1" arrivalPos="411.50" arrivalSpeed="15.46" duration="277.00" routeLength="3127.33" waitingTime="39.00" waitingCount="1" stopTime="0.00" timeLoss="73.91" rerouteNo="0" devices="tripinfo_072" vType="VM_standard_car" speedFactor="0.94" vaporized=""/>
    <tripinfo id="100" depart="0.00" departLane="Be_1" departPos="19.20" departSpeed="0.00" departDelay="0.00" arrival="277.00" arrivalLane="sC_1" arrivalPos="410.00" arrivalSpeed="16.96" duration="277.00" routeLength="3283.52" waitingTime="19.00" waitingCount="2" stopTime="0.00" timeLoss="86.47" rerouteNo="0" devices="tripinfo_100" vType="VM_standard_car" speedFactor="1.06" vaporized=""/>
    <tripinfo id="046" depart="0.00" departLane="s3_1" departPos="69.18" departSpeed="0.00" departDelay="0.00" arrival="280.00" arrivalLane="e1_1" arrivalPos="412.50" arrivalSpeed="16.33" duration="280.00" routeLength="3101.03" waitingTime="51.00" waitingCount="3" stopTime="0.00" timeLoss="88.65" rerouteNo="0" devices="tripinfo_046" vType="VM_standard_car" speedFactor="1.00" vaporized=""/>
    <tripinfo id="085" depart="0.00" departLane="e1_2" departPos="85.60" departSpeed="0.00" departDelay="0.00" arrival="283.00" arrivalLane="n1_1" arrivalPos="228.50" arrivalSpeed="16.02" duration="283.00" routeLength="3450.61" waitingTime="16.00" waitingCount="3" stopTime="0.00" timeLoss="66.22" rerouteNo="0" devices="tripinfo_085" vType="VM_standard_car" speedFactor="0.98" vaporized=""/>
    <tripinfo id="123" depart="0.00" departLane="CD_1" departPos="208.45" departSpeed="0.00" departDelay="0.00" arrival="283.00" arrivalLane="s1_1" arrivalPos="228.50" arrivalSpeed="16.63" duration="283.00" routeLength="3097.19" waitingTime="44.00" waitingCount="3" stopTime="0.00" timeLoss="95.13" rerouteNo="0" devices="tripinfo_123" vType="VM_standard_car" speedFactor="1.02" vaporized=""/>
    <tripinfo id="059" depart="0.00" departLane="wA_1" departPos="84.36" departSpeed="0.00" departDelay="0.00" arrival="284.00" arrivalLane="An_1" arrivalPos="411.00" arrivalSpeed="15.48" duration="284.00" routeLength="3270.46" waitingTime="32.00" waitingCount="4" stopTime="0.00" timeLoss="78.45" rerouteNo="0" devices="tripinfo_059" vType="VM_standard_car" speedFactor="0.97" vaporized=""/>
    <tripinfo id="088" depart="0.00" departLane="e1_2" departPos="151.19" departSpeed="0.00" departDelay="0.00" arrival="285.00" arrivalLane="n1_2" arrivalPos="228.50" arrivalSpeed="16.54" duration="285.00" routeLength="3401.59" waitingTime="22.00" waitingCount="3" stopTime="0.00" timeLoss="80.01" rerouteNo="0" devices="tripinfo_088" vType="VM_standard_car" speedFactor="1.01" vaporized=""/>
    <tripinfo id="177" depart="0.00" departLane="CD_2" departPos="81.47" departSpeed="0.00" departDelay="0.00" arrival="287.00" arrivalLane="nB_2" arrivalPos="411.00" arrivalSpeed="16.80" duration="287.00" routeLength="3238.46" waitingTime="50.00" waitingCount="2" stopTime="0.00" timeLoss="92.88" rerouteNo="0" devices="tripinfo_177" vType="VM_standard_car" speedFactor="1.03" vaporized=""/>
    <tripinfo id="057" depart="0.00" departLane="AB_1" departPos="28.22" departSpeed="0.00" departDelay="0.00" arrival="288.00" arrivalLane="w1_2" arrivalPos="412.50" arrivalSpeed="7.80" duration="288.00" routeLength="3339.98" waitingTime="44.00" waitingCount="3" stopTime="0.00" timeLoss="110.73" rerouteNo="0" devices="tripinfo_057" vType="VM_standard_car" speedFactor="1.14" vaporized=""/>
    <tripinfo id="001" depart="0.00" departLane="e3_2" departPos="202.23" departSpeed="0.00" departDelay="0.00" arrival="289.00" arrivalLane="e2_1" arrivalPos="410.00" arrivalSpeed="14.82" duration="289.00" routeLength="3329.90" waitingTime="15.00" waitingCount="3" stopTime="0.00" timeLoss="72.64" rerouteNo="0" devices="tripinfo_001" vType="VM_standard_car" speedFactor="0.94" vaporized=""/>
    <tripinfo id="153" depart="0.00" departLane="n3_2" departPos="218.82" departSpeed="0.00" departDelay="0.00" arrival="290.00" arrivalLane="e1_1" arrivalPos="412.50" arrivalSpeed="14.47" duration="290.00" routeLength="3484.97" waitingTime="11.00" waitingCount="2" stopTime="0.00" timeLoss="60.20" rerouteNo="0" devices="tripinfo_153" vType="VM_standard_car" speedFactor="0.93" vaporized=""/>
    <tripinfo id="190" depart="2.00" departLane="s3_1" departPos="45.37" departSpeed="0.00" departDelay="2.00" arrival="291.00" arrivalLane="w3_1" arrivalPos="411.50" arrivalSpeed="14.80" duration="289.00" routeLength="2918.69" waitingTime="43.00" waitingCount="3" stopTime="0.00" timeLoss="91.18" rerouteNo="0" devices="tripinfo_190" vType="VM_standard_car" speedFactor="0.90" vaporized=""/>
    <tripinfo id="146" depart="0.00" departLane="e3_1" departPos="208.34" departSpeed="0.00" departDelay="0.00" arrival="299.00" arrivalLane="n3_1" arrivalPos="228.50" arrivalSpeed="14.13" duration="299.00" routeLength="2966.14" waitingTime="49.00" waitingCount="4" stopTime="0.00" timeLoss="96.33" rerouteNo="0" devices="tripinfo_146" vType="VM_standard_car" speedFactor="0.89" vaporized=""/>
    <tripinfo id="187" depart="0.00" departLane="Be_1" departPos="33.23" departSpeed="0.00" departDelay="0.00" arrival="305.00" arrivalLane="n1_2" arrivalPos="228.50" arrivalSpeed="14.26" duration="305.00" routeLength="3321.13" waitingTime="25.00" waitingCount="3" stopTime="0.00" timeLoss="77.30" rerouteNo="0" devices="tripinfo_187" vType="VM_standard_car" speedFactor="0.89" vaporized=""/>
    <tripinfo id="144" depart="0.00" departLane="Ds_2" departPos="266.49" departSpeed="0.00" departDelay="0.00" arrival="308.00" arrivalLane="e1_1" arrivalPos="412.50" arrivalSpeed="12.12" duration="308.00" routeLength="3077.57" waitingTime="11.00" waitingCount="3" stopTime="0.00" timeLoss="52.17" rerouteNo="0" devices="tripinfo_144" vType="VM_standard_car" speedFactor="0.73" vaporized=""/>
    <tripinfo id="199" depart="0.00" departLane="Be_1" departPos="117.81" departSpeed="0.00" departDelay="0.00" arrival="313.00" arrivalLane="n1_1" arrivalPos="228.50" arrivalSpeed="12.87" duration="313.00" routeLength="3230.89" waitingTime="34.00" waitingCount="3" stopTime="0.00" timeLoss="74.57" rerouteNo="0" devices="tripinfo_199" vType="VM_standard_car" speedFactor="0.83" vaporized=""/>
    <tripinfo id="080" depart="0.00" departLane="Ds_2" departPos="349.03" departSpeed="0.00" departDelay="0.00" arrival="316.00" arrivalLane="e1_2" arrivalPos="412.50" arrivalSpeed="16.36" duration="316.00" routeLength="2995.40" waitingTime="71.00" waitingCount="6" stopTime="0.00" timeLoss="137.92" rerouteNo="0" devices="tripinfo_080" vType="VM_standard_car" speedFactor="1.03" vaporized=""/>
    <tripinfo id="031" depart="1.00" departLane="De_2" departPos="123.55" departSpeed="0.00" departDelay="1.00" arrival="317.00" arrivalLane="e1_1" arrivalPos="412.50" arrivalSpeed="18.35" duration="316.00" routeLength="3202.31" waitingTime="63.00" waitingCount="5" stopTime="0.00" timeLoss="145.03" rerouteNo="0" devices="tripinfo_031" vType="VM_standard_car" speedFactor="1.15" vaporized=""/>
    <tripinfo id="070" depart="0.00" departLane="An_1" departPos="388.31" departSpeed="0.00" departDelay="0.00" arrival="327.00" arrivalLane="e1_2" arrivalPos="412.50" arrivalSpeed="16.26" duration="327.00" routeLength="2753.98" waitingTime="106.00" waitingCount="5" stopTime="0.00" timeLoss="160.92" rerouteNo="0" devices="tripinfo_070" vType="VM_standard_car" speedFactor="1.02" vaporized=""/>
    <tripinfo id="148" depart="0.00" departLane="CD_1" departPos="216.59" departSpeed="0.00" departDelay="0.00" arrival="330.00" arrivalLane="De_1" arrivalPos="227.00" arrivalSpeed="15.86" duration="330.00" routeLength="2975.26" waitingTime="106.00" waitingCount="2" stopTime="0.00" timeLoss="140.09" rerouteNo="0" devices="tripinfo_148" vType="VM_standard_car" speedFactor="0.97" vaporized=""/>
    <tripinfo id="121" depart="0.00" departLane="Bn_2" departPos="236.53" departSpeed="0.00" departDelay="0.00" arrival="339.00" arrivalLane="AC_1" arrivalPos="410.00" arrivalSpeed="17.61" duration="339.00" routeLength="3094.40" waitingTime="107.00" waitingCount="4" stopTime="0.00" timeLoss="167.27" rerouteNo="0" devices="tripinfo_121" vType="VM_standard_car" speedFactor="1.10" vaporized=""/>
    <tripinfo id="180" depart="0.00" departLane="s2_1" departPos="212.32" departSpeed="0.00" departDelay="0.00" arrival="339.00" arrivalLane="e2_2" arrivalPos="410.00" arrivalSpeed="18.14" duration="339.00" routeLength="3128.40" waitingTime="99.00" waitingCount="5" stopTime="0.00" timeLoss="163.58" rerouteNo="0" devices="tripinfo_180" vType="VM_standard_car" speedFactor="1.10" vaporized=""/>
    <tripinfo id="131" depart="0.00" departLane="nB_1" departPos="120.61" departSpeed="0.00" departDelay="0.00" arrival="351.00" arrivalLane="e3_1" arrivalPos="411.50" arrivalSpeed="17.55" duration="351.00" routeLength="3225.74" waitingTime="118.00" waitingCount="2" stopTime="0.00" timeLoss="164.27" rerouteNo="0" devices="tripinfo_131" vType="VM_standard_car" speedFactor="1.07" vaporized=""/>
    <tripinfo id="183" depart="0.00" departLane="e1_1" departPos="213.39" departSpeed="0.00" departDelay="0.00" arrival="351.00" arrivalLane="e2_1" arrivalPos="410.00" arrivalSpeed="17.59" duration="351.00" routeLength="2966.53" waitingTime="120.00" waitingCount="8" stopTime="0.00" timeLoss="183.19" rerouteNo="0" devices="tripinfo_183" vType="VM_standard_car" speedFactor="1.08" vaporized=""/>
    <tripinfo id="105" depart="0.00" departLane="BA_1" departPos="19.31" departSpeed="0.00" departDelay="0.00" arrival="360.00" arrivalLane="s3_1" arrivalPos="228.50" arrivalSpeed="16.92" duration="360.00" routeLength="3147.40" waitingTime="141.00" waitingCount="2" stopTime="0.00" timeLoss="181.38" rerouteNo="0" devices="tripinfo_105" vType="VM_standard_car" speedFactor="1.07" vaporized=""/>
    <tripinfo id="191" depart="1.00" departLane="DB_2" departPos="66.51" departSpeed="0.00" departDelay="1.00" arrival="369.00" arrivalLane="e3_1" arrivalPos="411.50" arrivalSpeed="15.23" duration="368.00" routeLength="3277.70" waitingTime="111.00" waitingCount="2" stopTime="0.00" timeLoss="149.84" rerouteNo="0" devices="tripinfo_191" vType="VM_standard_car" speedFactor="0.93" vaporized=""/>
    <tripinfo id="111" depart="0.00" departLane="s1_2" departPos="52.63" departSpeed="0.00" departDelay="0.00" arrival="397.00" arrivalLane="w1_1" arrivalPos="412.50" arrivalSpeed="13.79" duration="397.00" routeLength="3650.07" waitingTime="81.00" waitingCount="5" stopTime="0.00" timeLoss="139.23" rerouteNo="0" devices="tripinfo_111" vType="VM_standard_car" speedFactor="0.87" vaporized=""/>
    <tripinfo id="071" depart="0.00" departLane="BA_1" departPos="3.32" departSpeed="0.00" departDelay="0.00" arrival="409.00" arrivalLane="s1_1" arrivalPos="228.50" arrivalSpeed="15.89" duration="409.00" routeLength="3514.04" waitingTime="145.00" waitingCount="2" stopTime="0.00" timeLoss="187.13" rerouteNo="0" devices="tripinfo_071" vType="VM_standard_car" speedFactor="0.97" vaporized=""/>
    <tripinfo id="176" depart="0.00" departLane="Aw_1" departPos="27.14" departSpeed="0.00" departDelay="0.00" arrival="430.00" arrivalLane="sD_1" arrivalPos="410.00" arrivalSpeed="17.99" duration="430.00" routeLength="3293.08" waitingTime="205.00" waitingCount="1" stopTime="0.00" timeLoss="243.84" rerouteNo="0" devices="tripinfo_176" vType="VM_standard_car" speedFactor="1.09" vaporized=""/>
    <tripinfo id="027" depart="0.00" departLane="e1_1" departPos="126.96" departSpeed="0.00" departDelay="0.00" arrival="513.00" arrivalLane="s1_1" arrivalPos="228.50" arrivalSpeed="11.36" duration="513.00" routeLength="3213.24" waitingTime="258.00" waitingCount="4" stopTime="0.00" timeLoss="306.14" rerouteNo="0" devices="tripinfo_027" vType="VM_standard_car" speedFactor="0.95" vaporized=""/>
    <tripinfo id="130" depart="0.00" departLane="eB_2" departPos="77.49" departSpeed="0.00" departDelay="0.00" arrival="518.00" arrivalLane="n2_1" arrivalPos="227.00" arrivalSpeed="17.04" duration="518.00" routeLength="3243.99" waitingTime="301.00" waitingCount="1" stopTime="0.00" timeLoss="326.38" rerouteNo="0" devices="tripinfo_130" vType="VM_standard_car" speedFactor="1.03" vaporized=""/>