<?xml version="1.0" encoding="UTF-8"?>

<!-- generated on 2025-04-07 15:25:06 by Eclipse SUMO sumo Version 1.22.0
<sumoConfiguration xmlns:xsi="http://www.w3.org/2001/XMLSchema-instance" xsi:noNamespaceSchemaLocation="http://sumo.dlr.de/xsd/sumoConfiguration.xsd">

    <input>
        <net-file value="C:/Users/Vaideeswaran/Downloads/tr_103766v010101p0/urban_60kmph_100vh/urban_60kmph.net.xml"/>
        <route-files value="C:/Users/Vaideeswaran/Downloads/tr_103766v010101p0/urban_60kmph_100vh/urban_100vh.rou.xml"/>
        <additional-files value="C:/Users/Vaideeswaran/Downloads/tr_103766v010101p0/urban_60kmph_100vh/vtypes.add.xml"/>
    </input>

    <output>
        <tripinfo-output value="C:/Users/Vaideeswaran/Downloads/tr_103766v010101p0/urban_60kmph_100vh/tripinfos.xml"/>
    </output>

    <report>
        <log value="C:/Users/Vaideeswaran/Downloads/tr_103766v010101p0/urban_60kmph_100vh/log.txt"/>
    </report>

    <traci_server>
        <remote-port value="64129"/>
    </traci_server>

</sumoConfiguration>
-->

<tripinfos xmlns:xsi="http://www.w3.org/2001/XMLSchema-instance" xsi:noNamespaceSchemaLocation="http://sumo.dlr.de/xsd/tripinfo_file.xsd">
    <tripinfo id="070" depart="0.00" departLane="An_1" departPos="388.31" departSpeed="0.00" departDelay="0.00" arrival="196.00" arrivalLane="e1_2" arrivalPos="412.50" arrivalSpeed="16.16" duration="196.00" routeLength="2759.63" waitingTime="0.00" waitingCount="0" stopTime="0.00" timeLoss="29.35" rerouteNo="0" devices="tripinfo_070" vType="VM_standard_car" speedFactor="1.02" vaporized=""/>
    <tripinfo id="073" depart="0.00" departLane="AC_1" departPos="370.38" departSpeed="0.00" departDelay="0.00" arrival="203.00" arrivalLane="w1_1" arrivalPos="412.50" arrivalSpeed="17.52" duration="203.00" routeLength="2978.18" waitingTime="0.00" waitingCount="0" stopTime="0.00" timeLoss="28.48" rerouteNo="0" devices="tripinfo_073" vType="VM_standard_car" speedFactor="1.06" vaporized=""/>
    <tripinfo id="053" depart="0.00" departLane="cS_1" departPos="140.58" departSpeed="0.00" departDelay="0.00" arrival="205.00" arrivalLane="wC_1" arrivalPos="227.00" arrivalSpeed="17.53" duration="205.00" routeLength="2979.14" waitingTime="0.00" waitingCount="0" stopTime="0.00" timeLoss="36.88" rerouteNo="0" devices="tripinfo_053" vType="VM_standard_car" speedFactor="1.10" vaporized=""/>
    <tripinfo id="051" depart="0.00" departLane="wA_1" departPos="130.22" departSpeed="0.00" departDelay="0.00" arrival="207.00" arrivalLane="s3_2" arrivalPos="228.50" arrivalSpeed="19.32" duration="207.00" routeLength="3007.49" waitingTime="0.00" waitingCount="0" stopTime="0.00" timeLoss="47.87" rerouteNo="0" devices="tripinfo_051" vType="VM_standard_car" speedFactor="1.17" vaporized=""/>
    <tripinfo id="006" depart="0.00" departLane="Aw_2" departPos="102.63" departSpeed="0.00" departDelay="0.00" arrival="208.00" arrivalLane="w1_2" arrivalPos="412.50" arrivalSpeed="17.33" duration="208.00" routeLength="2870.07" waitingTime="0.00" waitingCount="0" stopTime="0.00" timeLoss="39.57" rerouteNo="0" devices="tripinfo_006" vType="VM_standard_car" speedFactor="1.05" vaporized=""/>
    <tripinfo id="045" depart="0.00" departLane="AC_1" departPos="400.50" departSpeed="0.00" departDelay="0.00" arrival="211.00" arrivalLane="CA_1" arrivalPos="410.00" arrivalSpeed="17.89" duration="211.00" routeLength="3097.56" waitingTime="2.00" waitingCount="1" stopTime="0.00" timeLoss="35.62" rerouteNo="0" devices="tripinfo_045" vType="VM_standard_car" speedFactor="1.09" vaporized=""/>
    <tripinfo id="000" depart="0.00" departLane="BD_1" departPos="292.12" departSpeed="0.00" departDelay="0.00" arrival="213.00" arrivalLane="n3_2" arrivalPos="228.50" arrivalSpeed="12.03" duration="213.00" routeLength="3070.43" waitingTime="4.00" waitingCount="1" stopTime="0.00" timeLoss="37.07" rerouteNo="0" devices="tripinfo_000" vType="VM_standard_car" speedFactor="1.06" vaporized=""/>
    <tripinfo id="057" depart="0.00" departLane="AB_1" departPos="28.22" departSpeed="0.00" departDelay="0.00" arrival="217.00" arrivalLane="w1_2" arrivalPos="412.50" arrivalSpeed="18.77" duration="217.00" routeLength="3345.62" waitingTime="0.00" waitingCount="0" stopTime="0.00" timeLoss="37.99" rerouteNo="0" devices="tripinfo_057" vType="VM_standard_car" speedFactor="1.14" vaporized=""/>
    <tripinfo id="074" depart="1.00" departLane="AC_2" departPos="303.84" departSpeed="0.00" departDelay="1.00" arrival="217.00" arrivalLane="s2_1" arrivalPos="227.00" arrivalSpeed="15.91" duration="216.00" routeLength="2841.72" waitingTime="2.00" waitingCount="1" stopTime="0.00" timeLoss="33.46" rerouteNo="0" devices="tripinfo_074" vType="VM_standard_car" speedFactor="0.96" vaporized=""/>
    <tripinfo id="094" depart="0.00" departLane="Aw_2" departPos="72.83" departSpeed="0.00" departDelay="0.00" arrival="220.00" arrivalLane="s2_2" arrivalPos="227.00" arrivalSpeed="10.49" duration="220.00" routeLength="3105.17" waitingTime="0.00" waitingCount="0" stopTime="0.00" timeLoss="45.33" rerouteNo="0" devices="tripinfo_094" vType="VM_standard_car" speedFactor="1.09" vaporized=""/>
    <tripinfo id="030" depart="0.00" departLane="n3_2" departPos="146.61" departSpeed="0.00" departDelay="0.00" arrival="221.00" arrivalLane="w1_2" arrivalPos="412.50" arrivalSpeed="19.00" duration="221.00" routeLength="3406.17" waitingTime="7.00" waitingCount="1" stopTime="0.00" timeLoss="44.48" rerouteNo="0" devices="tripinfo_030" vType="VM_standard_car" speedFactor="1.18" vaporized=""/>
    <tripinfo id="099" depart="0.00" departLane="w1_2" departPos="327.12" departSpeed="0.00" departDelay="0.00" arrival="221.00" arrivalLane="n3_2" arrivalPos="228.50" arrivalSpeed="17.39" duration="221.00" routeLength="2656.87" waitingTime="27.00" waitingCount="3" stopTime="0.00" timeLoss="70.88" rerouteNo="0" devices="tripinfo_099" vType="VM_standard_car" speedFactor="1.10" vaporized=""/>
    <tripinfo id="031" depart="1.00" departLane="De_1" departPos="19.20" departSpeed="0.00" departDelay="1.00" arrival="222.00" arrivalLane="e1_2" arrivalPos="412.50" arrivalSpeed="6.92" duration="221.00" routeLength="3306.67" waitingTime="5.00" waitingCount="1" stopTime="0.00" timeLoss="44.07" rerouteNo="0" devices="tripinfo_031" vType="VM_standard_car" speedFactor="1.15" vaporized=""/>
    <tripinfo id="028" depart="0.00" departLane="n2_2" departPos="131.68" departSpeed="0.00" departDelay="0.00" arrival="227.00" arrivalLane="n1_2" arrivalPos="228.50" arrivalSpeed="18.66" duration="227.00" routeLength="3029.75" waitingTime="7.00" waitingCount="2" stopTime="0.00" timeLoss="62.58" rerouteNo="0" devices="tripinfo_028" vType="VM_standard_car" speedFactor="1.13" vaporized=""/>
    <tripinfo id="052" depart="0.00" departLane="eB_2" departPos="67.26" departSpeed="0.00" departDelay="0.00" arrival="229.00" arrivalLane="n2_1" arrivalPos="227.00" arrivalSpeed="16.87" duration="229.00" routeLength="2885.38" waitingTime="13.00" waitingCount="1" stopTime="0.00" timeLoss="54.48" rerouteNo="0" devices="tripinfo_052" vType="VM_standard_car" speedFactor="1.02" vaporized=""/>
    <tripinfo id="068" depart="0.00" departLane="Cw_2" departPos="23.35" departSpeed="0.00" departDelay="0.00" arrival="229.00" arrivalLane="An_1" arrivalPos="411.00" arrivalSpeed="16.68" duration="229.00" routeLength="3130.86" waitingTime="1.00" waitingCount="1" stopTime="0.00" timeLoss="45.05" rerouteNo="0" devices="tripinfo_068" vType="VM_standard_car" speedFactor="1.04" vaporized=""/>
    <tripinfo id="087" depart="0.00" departLane="e1_2" departPos="298.30" departSpeed="0.00" departDelay="0.00" arrival="229.00" arrivalLane="e2_2" arrivalPos="410.00" arrivalSpeed="16.48" duration="229.00" routeLength="3222.82" waitingTime="4.00" waitingCount="1" stopTime="0.00" timeLoss="39.43" rerouteNo="0" devices="tripinfo_087" vType="VM_standard_car" speedFactor="1.04" vaporized=""/>
    <tripinfo id="042" depart="0.00" departLane="AB_2" departPos="88.47" departSpeed="0.00" departDelay="0.00" arrival="230.00" arrivalLane="Cw_2" arrivalPos="227.00" arrivalSpeed="17.67" duration="230.00" routeLength="3260.77" waitingTime="1.00" waitingCount="1" stopTime="0.00" timeLoss="45.90" rerouteNo="0" devices="tripinfo_042" vType="VM_standard_car" speedFactor="1.09" vaporized=""/>
    <tripinfo id="084" depart="0.00" departLane="e2_1" departPos="345.91" departSpeed="0.00" departDelay="0.00" arrival="230.00" arrivalLane="w3_2" arrivalPos="411.50" arrivalSpeed="18.29" duration="230.00" routeLength="3372.68" waitingTime="16.00" waitingCount="1" stopTime="0.00" timeLoss="49.40" rerouteNo="0" devices="tripinfo_084" vType="VM_standard_car" speedFactor="1.15" vaporized=""/>
    <tripinfo id="012" depart="0.00" departLane="e1_1" departPos="340.03" departSpeed="0.00" departDelay="0.00" arrival="232.00" arrivalLane="An_1" arrivalPos="411.00" arrivalSpeed="16.87" duration="232.00" routeLength="3203.76" waitingTime="6.00" waitingCount="2" stopTime="0.00" timeLoss="44.08" rerouteNo="0" devices="tripinfo_012" vType="VM_standard_car" speedFactor="1.05" vaporized=""/>
    <tripinfo id="098" depart="1.00" departLane="Aw_2" departPos="1.66" departSpeed="0.00" departDelay="1.00" arrival="233.00" arrivalLane="e1_2" arrivalPos="412.50" arrivalSpeed="17.80" duration="232.00" routeLength="3145.22" waitingTime="15.00" waitingCount="2" stopTime="0.00" timeLoss="58.19" rerouteNo="0" devices="tripinfo_098" vType="VM_standard_car" speedFactor="1.12" vaporized=""/>
    <tripinfo id="095" depart="0.00" departLane="e3_2" departPos="350.09" departSpeed="0.00" departDelay="0.00" arrival="234.00" arrivalLane="n3_2" arrivalPos="228.50" arrivalSpeed="16.68" duration="234.00" routeLength="2808.12" waitingTime="21.00" waitingCount="3" stopTime="0.00" timeLoss="70.40" rerouteNo="0" devices="tripinfo_095" vType="VM_standard_car" speedFactor="1.06" vaporized=""/>
    <tripinfo id="023" depart="0.00" departLane="Bn_1" departPos="333.61" departSpeed="0.00" departDelay="0.00" arrival="237.00" arrivalLane="wC_1" arrivalPos="227.00" arrivalSpeed="14.28" duration="237.00" routeLength="2997.53" waitingTime="0.00" waitingCount="0" stopTime="0.00" timeLoss="30.82" rerouteNo="0" devices="tripinfo_023" vType="VM_standard_car" speedFactor="0.89" vaporized=""/>
    <tripinfo id="035" depart="0.00" departLane="w2_1" departPos="139.00" departSpeed="0.00" departDelay="0.00" arrival="237.00" arrivalLane="w3_1" arrivalPos="411.50" arrivalSpeed="16.46" duration="237.00" routeLength="3377.14" waitingTime="0.00" waitingCount="0" stopTime="0.00" timeLoss="32.91" rerouteNo="0" devices="tripinfo_035" vType="VM_standard_car" speedFactor="1.02" vaporized=""/>
    <tripinfo id="026" depart="0.00" departLane="n2_2" departPos="212.26" departSpeed="0.00" departDelay="0.00" arrival="238.00" arrivalLane="s3_1" arrivalPos="228.50" arrivalSpeed="14.71" duration="238.00" routeLength="3104.96" waitingTime="0.00" waitingCount="0" stopTime="0.00" timeLoss="30.09" rerouteNo="0" devices="tripinfo_026" vType="VM_standard_car" speedFactor="0.92" vaporized=""/>
    <tripinfo id="032" depart="0.00" departLane="s3_2" departPos="124.94" departSpeed="0.00" departDelay="0.00" arrival="239.00" arrivalLane="e1_1" arrivalPos="412.50" arrivalSpeed="16.54" duration="239.00" routeLength="3366.28" waitingTime="0.00" waitingCount="0" stopTime="0.00" timeLoss="32.72" rerouteNo="0" devices="tripinfo_032" vType="VM_standard_car" speedFactor="1.01" vaporized=""/>
    <tripinfo id="072" depart="0.00" departLane="s3_1" departPos="202.73" departSpeed="0.00" departDelay="0.00" arrival="239.00" arrivalLane="w3_1" arrivalPos="411.50" arrivalSpeed="14.96" duration="239.00" routeLength="3138.63" waitingTime="3.00" waitingCount="1" stopTime="0.00" timeLoss="35.24" rerouteNo="0" devices="tripinfo_072" vType="VM_standard_car" speedFactor="0.94" vaporized=""/>
    <tripinfo id="008" depart="0.00" departLane="nA_2" departPos="359.87" departSpeed="0.00" departDelay="0.00" arrival="240.00" arrivalLane="eB_1" arrivalPos="227.00" arrivalSpeed="15.18" duration="240.00" routeLength="2971.69" waitingTime="11.00" waitingCount="2" stopTime="0.00" timeLoss="45.24" rerouteNo="0" devices="tripinfo_008" vType="VM_standard_car" speedFactor="0.94" vaporized=""/>
    <tripinfo id="058" depart="0.00" departLane="wC_1" departPos="32.04" departSpeed="0.00" departDelay="0.00" arrival="241.00" arrivalLane="s2_2" arrivalPos="227.00" arrivalSpeed="16.79" duration="241.00" routeLength="3338.54" waitingTime="4.00" waitingCount="2" stopTime="0.00" timeLoss="41.93" rerouteNo="0" devices="tripinfo_058" vType="VM_standard_car" speedFactor="1.02" vaporized=""/>
    <tripinfo id="054" depart="0.00" departLane="nA_2" departPos="41.73" departSpeed="0.00" departDelay="0.00" arrival="242.00" arrivalLane="e2_1" arrivalPos="410.00" arrivalSpeed="15.89" duration="242.00" routeLength="3474.83" waitingTime="0.00" waitingCount="0" stopTime="0.00" timeLoss="29.05" rerouteNo="0" devices="tripinfo_054" vType="VM_standard_car" speedFactor="1.00" vaporized=""/>
    <tripinfo id="029" depart="0.00" departLane="s3_1" departPos="218.20" departSpeed="0.00" departDelay="0.00" arrival="244.00" arrivalLane="sD_1" arrivalPos="410.00" arrivalSpeed="14.78" duration="244.00" routeLength="2745.86" waitingTime="28.00" waitingCount="2" stopTime="0.00" timeLoss="63.77" rerouteNo="0" devices="tripinfo_029" vType="VM_standard_car" speedFactor="0.93" vaporized=""/>
    <tripinfo id="021" depart="0.00" departLane="s2_1" departPos="50.65" departSpeed="0.00" departDelay="0.00" arrival="245.00" arrivalLane="eB_1" arrivalPos="227.00" arrivalSpeed="16.44" duration="245.00" routeLength="3121.71" waitingTime="17.00" waitingCount="2" stopTime="0.00" timeLoss="56.83" rerouteNo="0" devices="tripinfo_021" vType="VM_standard_car" speedFactor="1.01" vaporized=""/>
    <tripinfo id="025" depart="0.00" departLane="DB_1" departPos="244.45" departSpeed="0.00" departDelay="0.00" arrival="245.00" arrivalLane="s2_1" arrivalPos="227.00" arrivalSpeed="13.64" duration="245.00" routeLength="3058.27" waitingTime="0.00" waitingCount="0" stopTime="0.00" timeLoss="28.88" rerouteNo="0" devices="tripinfo_025" vType="VM_standard_car" speedFactor="0.87" vaporized=""/>
    <tripinfo id="022" depart="0.00" departLane="w1_2" departPos="235.79" departSpeed="0.00" departDelay="0.00" arrival="246.00" arrivalLane="n1_2" arrivalPos="228.50" arrivalSpeed="15.36" duration="246.00" routeLength="3468.00" waitingTime="0.00" waitingCount="0" stopTime="0.00" timeLoss="28.46" rerouteNo="0" devices="tripinfo_022" vType="VM_standard_car" speedFactor="0.97" vaporized=""/>
    <tripinfo id="043" depart="0.00" departLane="wC_2" departPos="187.40" departSpeed="0.00" departDelay="0.00" arrival="246.00" arrivalLane="s2_2" arrivalPos="227.00" arrivalSpeed="14.85" duration="246.00" routeLength="3177.23" waitingTime="12.00" waitingCount="2" stopTime="0.00" timeLoss="59.02" rerouteNo="0" devices="tripinfo_043" vType="VM_standard_car" speedFactor="1.04" vaporized=""/>
    <tripinfo id="097" depart="0.00" departLane="n1_2" departPos="214.95" departSpeed="0.00" departDelay="0.00" arrival="248.00" arrivalLane="CA_1" arrivalPos="410.00" arrivalSpeed="14.89" duration="248.00" routeLength="3136.68" waitingTime="0.00" waitingCount="0" stopTime="0.00" timeLoss="35.51" rerouteNo="0" devices="tripinfo_097" vType="VM_standard_car" speedFactor="0.91" vaporized=""/>
    <tripinfo id="004" depart="0.00" departLane="eD_2" departPos="169.14" departSpeed="0.00" departDelay="0.00" arrival="249.00" arrivalLane="e2_2" arrivalPos="410.00" arrivalSpeed="16.75" duration="249.00" routeLength="3320.58" waitingTime="13.00" waitingCount="1" stopTime="0.00" timeLoss="50.15" rerouteNo="0" devices="tripinfo_004" vType="VM_standard_car" speedFactor="1.03" vaporized=""/>
    <tripinfo id="064" depart="0.00" departLane="wA_1" departPos="150.57" departSpeed="0.00" departDelay="0.00" arrival="249.00" arrivalLane="e2_1" arrivalPos="410.00" arrivalSpeed="15.28" duration="249.00" routeLength="3183.05" waitingTime="7.00" waitingCount="1" stopTime="0.00" timeLoss="40.81" rerouteNo="0" devices="tripinfo_064" vType="VM_standard_car" speedFactor="0.94" vaporized=""/>
    <tripinfo id="062" depart="0.00" departLane="Cw_2" departPos="191.93" departSpeed="0.00" departDelay="0.00" arrival="250.00" arrivalLane="s3_2" arrivalPos="228.50" arrivalSpeed="16.43" duration="250.00" routeLength="3158.15" waitingTime="18.00" waitingCount="1" stopTime="0.00" timeLoss="58.52" rerouteNo="0" devices="tripinfo_062" vType="VM_standard_car" speedFactor="1.02" vaporized=""/>
    <tripinfo id="077" depart="0.00" departLane="Cw_1" departPos="208.53" departSpeed="0.00" departDelay="0.00" arrival="250.00" arrivalLane="s3_1" arrivalPos="228.50" arrivalSpeed="15.37" duration="250.00" routeLength="3114.27" waitingTime="14.00" waitingCount="1" stopTime="0.00" timeLoss="52.17" rerouteNo="0" devices="tripinfo_077" vType="VM_standard_car" speedFactor="0.98" vaporized=""/>
    <tripinfo id="081" depart="0.00" departLane="Cw_2" departPos="89.32" departSpeed="0.00" departDelay="0.00" arrival="250.00" arrivalLane="De_1" arrivalPos="227.00" arrivalSpeed="16.09" duration="250.00" routeLength="3093.26" waitingTime="13.00" waitingCount="3" stopTime="0.00" timeLoss="60.05" rerouteNo="0" devices="tripinfo_081" vType="VM_standard_car" speedFactor="1.00" vaporized=""/>
    <tripinfo id="003" depart="0.00" departLane="cS_1" departPos="101.48" departSpeed="0.00" departDelay="0.00" arrival="251.00" arrivalLane="e2_2" arrivalPos="410.00" arrivalSpeed="17.36" duration="251.00" routeLength="3442.52" waitingTime="16.00" waitingCount="2" stopTime="0.00" timeLoss="57.60" rerouteNo="0" devices="tripinfo_003" vType="VM_standard_car" speedFactor="1.08" vaporized=""/>
    <tripinfo id="037" depart="0.00" departLane="De_1" departPos="41.01" departSpeed="0.00" departDelay="0.00" arrival="251.00" arrivalLane="nA_1" arrivalPos="411.00" arrivalSpeed="19.59" duration="251.00" routeLength="3279.50" waitingTime="30.00" waitingCount="2" stopTime="0.00" timeLoss="78.50" rerouteNo="0" devices="tripinfo_037" vType="VM_standard_car" speedFactor="1.18" vaporized=""/>
    <tripinfo id="063" depart="0.00" departLane="Aw_2" departPos="205.30" departSpeed="0.00" departDelay="0.00" arrival="253.00" arrivalLane="w1_1" arrivalPos="412.50" arrivalSpeed="12.33" duration="253.00" routeLength="3499.40" waitingTime="4.00" waitingCount="2" stopTime="0.00" timeLoss="37.49" rerouteNo="0" devices="tripinfo_063" vType="VM_standard_car" speedFactor="0.99" vaporized=""/>
    <tripinfo id="069" depart="0.00" departLane="e2_1" departPos="262.86" departSpeed="0.00" departDelay="0.00" arrival="253.00" arrivalLane="w3_1" arrivalPos="411.50" arrivalSpeed="16.93" duration="253.00" routeLength="3053.36" waitingTime="22.00" waitingCount="2" stopTime="0.00" timeLoss="67.90" rerouteNo="0" devices="tripinfo_069" vType="VM_standard_car" speedFactor="1.02" vaporized=""/>
    <tripinfo id="093" depart="0.00" departLane="e2_2" departPos="80.09" departSpeed="0.00" departDelay="0.00" arrival="253.00" arrivalLane="e1_1" arrivalPos="412.50" arrivalSpeed="14.66" duration="253.00" routeLength="3446.39" waitingTime="0.00" waitingCount="0" stopTime="0.00" timeLoss="25.53" rerouteNo="0" devices="tripinfo_093" vType="VM_standard_car" speedFactor="0.92" vaporized=""/>
    <tripinfo id="059" depart="0.00" departLane="wA_1" departPos="84.36" departSpeed="0.00" departDelay="0.00" arrival="254.00" arrivalLane="An_1" arrivalPos="411.00" arrivalSpeed="15.75" duration="254.00" routeLength="3270.46" waitingTime="17.00" waitingCount="1" stopTime="0.00" timeLoss="48.65" rerouteNo="0" devices="tripinfo_059" vType="VM_standard_car" speedFactor="0.97" vaporized=""/>
    <tripinfo id="086" depart="0.00" departLane="Ds_1" departPos="183.08" departSpeed="0.00" departDelay="0.00" arrival="254.00" arrivalLane="e1_2" arrivalPos="412.50" arrivalSpeed="16.67" duration="254.00" routeLength="3161.35" waitingTime="19.00" waitingCount="1" stopTime="0.00" timeLoss="59.52" rerouteNo="0" devices="tripinfo_086" vType="VM_standard_car" speedFactor="1.00" vaporized=""/>
    <tripinfo id="020" depart="0.00" departLane="De_2" departPos="218.95" departSpeed="0.00" departDelay="0.00" arrival="255.00" arrivalLane="Cw_1" arrivalPos="227.00" arrivalSpeed="16.91" duration="255.00" routeLength="2908.41" waitingTime="28.00" waitingCount="5" stopTime="0.00" timeLoss="77.86" rerouteNo="0" devices="tripinfo_020" vType="VM_standard_car" speedFactor="1.02" vaporized=""/>
    <tripinfo id="036" depart="1.00" departLane="n2_2" departPos="7.86" departSpeed="0.00" departDelay="1.00" arrival="256.00" arrivalLane="n3_1" arrivalPos="228.50" arrivalSpeed="16.07" duration="255.00" routeLength="3509.20" waitingTime="7.00" waitingCount="1" stopTime="0.00" timeLoss="33.89" rerouteNo="0" devices="tripinfo_036" vType="VM_standard_car" speedFactor="0.97" vaporized=""/>
    <tripinfo id="044" depart="0.00" departLane="w3_1" departPos="171.67" departSpeed="0.00" departDelay="0.00" arrival="258.00" arrivalLane="An_1" arrivalPos="411.00" arrivalSpeed="16.95" duration="258.00" routeLength="3529.39" waitingTime="14.00" waitingCount="2" stopTime="0.00" timeLoss="50.79" rerouteNo="0" devices="tripinfo_044" vType="VM_standard_car" speedFactor="1.04" vaporized=""/>
    <tripinfo id="075" depart="0.00" departLane="sD_1" departPos="192.82" departSpeed="0.00" departDelay="0.00" arrival="258.00" arrivalLane="DB_1" arrivalPos="410.00" arrivalSpeed="16.23" duration="258.00" routeLength="3699.66" waitingTime="0.00" waitingCount="0" stopTime="0.00" timeLoss="29.59" rerouteNo="0" devices="tripinfo_075" vType="VM_standard_car" speedFactor="0.98" vaporized=""/>
    <tripinfo id="076" depart="0.00" departLane="Be_2" departPos="0.19" departSpeed="0.00" departDelay="0.00" arrival="258.00" arrivalLane="n3_2" arrivalPos="228.50" arrivalSpeed="16.98" duration="258.00" routeLength="3343.21" waitingTime="18.00" waitingCount="1" stopTime="0.00" timeLoss="60.31" rerouteNo="0" devices="tripinfo_076" vType="VM_standard_car" speedFactor="1.03" vaporized=""/>
    <tripinfo id="001" depart="0.00" departLane="e3_2" departPos="202.23" departSpeed="0.00" departDelay="0.00" arrival="259.00" arrivalLane="e2_1" arrivalPos="410.00" arrivalSpeed="15.47" duration="259.00" routeLength="3324.25" waitingTime="0.00" waitingCount="0" stopTime="0.00" timeLoss="42.79" rerouteNo="0" devices="tripinfo_001" vType="VM_standard_car" speedFactor="0.94" vaporized=""/>
    <tripinfo id="079" depart="1.00" departLane="wA_2" departPos="27.11" departSpeed="0.00" departDelay="1.00" arrival="259.00" arrivalLane="s1_2" arrivalPos="228.50" arrivalSpeed="17.08" duration="258.00" routeLength="3167.31" waitingTime="31.00" waitingCount="3" stopTime="0.00" timeLoss="79.65" rerouteNo="0" devices="tripinfo_079" vType="VM_standard_car" speedFactor="1.09" vaporized=""/>
    <tripinfo id="080" depart="0.00" departLane="Ds_2" departPos="349.03" departSpeed="0.00" departDelay="0.00" arrival="259.00" arrivalLane="e1_1" arrivalPos="412.50" arrivalSpeed="16.79" duration="259.00" routeLength="2978.77" waitingTime="41.00" waitingCount="1" stopTime="0.00" timeLoss="82.17" rerouteNo="0" devices="tripinfo_080" vType="VM_standard_car" speedFactor="1.03" vaporized=""/>
    <tripinfo id="041" depart="0.00" departLane="wA_2" departPos="96.07" departSpeed="0.00" departDelay="0.00" arrival="262.00" arrivalLane="w2_1" arrivalPos="410.00" arrivalSpeed="15.61" duration="262.00" routeLength="3059.71" waitingTime="30.00" waitingCount="1" stopTime="0.00" timeLoss="64.76" rerouteNo="0" devices="tripinfo_041" vType="VM_standard_car" speedFactor="0.96" vaporized=""/>
    <tripinfo id="089" depart="0.00" departLane="An_2" departPos="64.78" departSpeed="0.00" departDelay="0.00" arrival="262.00" arrivalLane="w3_1" arrivalPos="411.50" arrivalSpeed="16.88" duration="262.00" routeLength="3296.23" waitingTime="28.00" waitingCount="1" stopTime="0.00" timeLoss="66.20" rerouteNo="0" devices="tripinfo_089" vType="VM_standard_car" speedFactor="1.02" vaporized=""/>
    <tripinfo id="038" depart="0.00" departLane="w3_1" departPos="32.92" departSpeed="0.00" departDelay="0.00" arrival="263.00" arrivalLane="Ds_1" arrivalPos="410.00" arrivalSpeed="17.39" duration="263.00" routeLength="3488.96" waitingTime="8.00" waitingCount="2" stopTime="0.00" timeLoss="68.77" rerouteNo="0" devices="tripinfo_038" vType="VM_standard_car" speedFactor="1.10" vaporized=""/>
    <tripinfo id="049" depart="0.00" departLane="sD_1" departPos="174.29" departSpeed="0.00" departDelay="0.00" arrival="263.00" arrivalLane="n1_1" arrivalPos="228.50" arrivalSpeed="14.08" duration="263.00" routeLength="3144.93" waitingTime="4.00" waitingCount="1" stopTime="0.00" timeLoss="35.62" rerouteNo="0" devices="tripinfo_049" vType="VM_standard_car" speedFactor="0.85" vaporized=""/>
    <tripinfo id="010" depart="0.00" departLane="e3_2" departPos="211.09" departSpeed="0.00" departDelay="0.00" arrival="264.00" arrivalLane="e2_2" arrivalPos="410.00" arrivalSpeed="17.90" duration="264.00" routeLength="3321.99" waitingTime="27.00" waitingCount="3" stopTime="0.00" timeLoss="76.40" rerouteNo="0" devices="tripinfo_010" vType="VM_standard_car" speedFactor="1.09" vaporized=""/>
    <tripinfo id="078" depart="0.00" departLane="Ds_2" departPos="199.43" departSpeed="0.00" departDelay="0.00" arrival="265.00" arrivalLane="e3_1" arrivalPos="411.50" arrivalSpeed="15.85" duration="265.00" routeLength="3500.05" waitingTime="20.00" waitingCount="1" stopTime="0.00" timeLoss="50.28" rerouteNo="0" devices="tripinfo_078" vType="VM_standard_car" speedFactor="1.01" vaporized=""/>
    <tripinfo id="091" depart="0.00" departLane="e3_1" departPos="47.18" departSpeed="0.00" departDelay="0.00" arrival="267.00" arrivalLane="w2_1" arrivalPos="410.00" arrivalSpeed="13.91" duration="267.00" routeLength="3274.69" waitingTime="9.00" waitingCount="1" stopTime="0.00" timeLoss="42.37" rerouteNo="0" devices="tripinfo_091" vType="VM_standard_car" speedFactor="0.89" vaporized=""/>
    <tripinfo id="046" depart="0.00" departLane="s3_1" departPos="69.18" departSpeed="0.00" departDelay="0.00" arrival="268.00" arrivalLane="e1_1" arrivalPos="412.50" arrivalSpeed="15.96" duration="268.00" routeLength="3095.38" waitingTime="34.00" waitingCount="3" stopTime="0.00" timeLoss="77.74" rerouteNo="0" devices="tripinfo_046" vType="VM_standard_car" speedFactor="1.00" vaporized=""/>
    <tripinfo id="085" depart="0.00" departLane="e1_2" departPos="85.60" departSpeed="0.00" departDelay="0.00" arrival="268.00" arrivalLane="n1_1" arrivalPos="228.50" arrivalSpeed="16.05" duration="268.00" routeLength="3444.96" waitingTime="14.00" waitingCount="1" stopTime="0.00" timeLoss="52.15" rerouteNo="0" devices="tripinfo_085" vType="VM_standard_car" speedFactor="0.98" vaporized=""/>
    <tripinfo id="002" depart="0.00" departLane="De_2" departPos="9.90" departSpeed="0.00" departDelay="0.00" arrival="269.00" arrivalLane="cS_2" arrivalPos="410.00" arrivalSpeed="16.80" duration="269.00" routeLength="3341.24" waitingTime="22.00" waitingCount="1" stopTime="0.00" timeLoss="65.73" rerouteNo="0" devices="tripinfo_002" vType="VM_standard_car" speedFactor="1.01" vaporized=""/>
    <tripinfo id="088" depart="0.00" departLane="e1_2" departPos="151.19" departSpeed="0.00" departDelay="0.00" arrival="270.00" arrivalLane="n1_2" arrivalPos="228.50" arrivalSpeed="16.33" duration="270.00" routeLength="3407.24" waitingTime="22.00" waitingCount="2" stopTime="0.00" timeLoss="64.61" rerouteNo="0" devices="tripinfo_088" vType="VM_standard_car" speedFactor="1.01" vaporized=""/>
    <tripinfo id="050" depart="0.00" departLane="An_2" departPos="187.32" departSpeed="0.00" departDelay="0.00" arrival="271.00" arrivalLane="cS_1" arrivalPos="410.00" arrivalSpeed="13.30" duration="271.00" routeLength="3344.32" waitingTime="0.00" waitingCount="0" stopTime="0.00" timeLoss="31.62" rerouteNo="0" devices="tripinfo_050" vType="VM_standard_car" speedFactor="0.85" vaporized=""/>
    <tripinfo id="016" depart="0.00" departLane="AB_1" departPos="36.12" departSpeed="0.00" departDelay="0.00" arrival="274.00" arrivalLane="CA_1" arrivalPos="410.00" arrivalSpeed="14.15" duration="274.00" routeLength="3487.60" waitingTime="3.00" waitingCount="1" stopTime="0.00" timeLoss="32.77" rerouteNo="0" devices="tripinfo_016" vType="VM_standard_car" speedFactor="0.88" vaporized=""/>
    <tripinfo id="019" depart="0.00" departLane="CD_1" departPos="28.46" departSpeed="0.00" departDelay="0.00" arrival="274.00" arrivalLane="w2_1" arrivalPos="410.00" arrivalSpeed="18.57" duration="274.00" routeLength="3311.21" waitingTime="44.00" waitingCount="2" stopTime="0.00" timeLoss="96.84" rerouteNo="0" devices="tripinfo_019" vType="VM_standard_car" speedFactor="1.16" vaporized=""/>
    <tripinfo id="083" depart="0.00" departLane="sC_1" departPos="321.45" departSpeed="0.00" departDelay="0.00" arrival="276.00" arrivalLane="n2_1" arrivalPos="227.00" arrivalSpeed="15.86" duration="276.00" routeLength="3015.17" waitingTime="45.00" waitingCount="2" stopTime="0.00" timeLoss="84.92" rerouteNo="0" devices="tripinfo_083" vType="VM_standard_car" speedFactor="0.97" vaporized=""/>
    <tripinfo id="048" depart="0.00" departLane="De_1" departPos="209.95" departSpeed="0.00" departDelay="0.00" arrival="277.00" arrivalLane="nA_1" arrivalPos="411.00" arrivalSpeed="14.20" duration="277.00" routeLength="3126.84" waitingTime="19.00" waitingCount="1" stopTime="0.00" timeLoss="58.65" rerouteNo="0" devices="tripinfo_048" vType="VM_standard_car" speedFactor="0.88" vaporized=""/>
    <tripinfo id="071" depart="0.00" departLane="BA_1" departPos="3.32" departSpeed="0.00" departDelay="0.00" arrival="280.00" arrivalLane="s1_1" arrivalPos="228.50" arrivalSpeed="16.07" duration="280.00" routeLength="3513.74" waitingTime="27.00" waitingCount="1" stopTime="0.00" timeLoss="58.14" rerouteNo="0" devices="tripinfo_071" vType="VM_standard_car" speedFactor="0.97" vaporized=""/>