<?xml version="1.0" encoding="UTF-8"?>

<!-- generated on 2025-06-17 19:28:36 by Eclipse SUMO sumo Version 1.22.0
<sumoConfiguration xmlns:xsi="http://www.w3.org/2001/XMLSchema-instance" xsi:noNamespaceSchemaLocation="http://sumo.dlr.de/xsd/sumoConfiguration.xsd">

    <input>
        <net-file value="C:/Users/Vaideeswaran/Documents/ACS Project/traces/3km_highway_70kmph_245vh/./../common_files/highway_3km_70kmph.net.xml"/>
        <route-files value="C:/Users/Vaideeswaran/Documents/ACS Project/traces/3km_highway_70kmph_245vh/./../common_files/highway_245vh.rou.xml"/>
        <additional-files value="C:/Users/Vaideeswaran/Documents/ACS Project/traces/3km_highway_70kmph_245vh/./../common_files/vtypes.add.xml"/>
    </input>

    <output>
        <tripinfo-output value="C:/Users/Vaideeswaran/Documents/ACS Project/traces/3km_highway_70kmph_245vh/tripinfos.xml"/>
    </output>

    <time>
        <step-length value="0.1"/>
    </time>

    <report>
        <log value="C:/Users/Vaideeswaran/Documents/ACS Project/traces/3km_highway_70kmph_245vh/log.txt"/>
    </report>

    <traci_server>
        <remote-port value="57638"/>
    </traci_server>

</sumoConfiguration>
-->

<tripinfos xmlns:xsi="http://www.w3.org/2001/XMLSchema-instance" xsi:noNamespaceSchemaLocation="http://sumo.dlr.de/xsd/tripinfo_file.xsd">
    <tripinfo id="145" depart="0.10" departLane="down_0" departPos="2787.75" departSpeed="0.00" departDelay="0.10" arrival="146.30" arrivalLane="up_2" arrivalPos="2900.00" arrivalSpeed="21.59" duration="146.20" routeLength="3011.92" waitingTime="0.00" waitingCount="0" stopTime="0.00" timeLoss="10.39" rerouteNo="0" devices="tripinfo_145" vType="VM_standard_car" speedFactor="1.14" vaporized=""/>
    <tripinfo id="019" depart="0.00" departLane="down_1" departPos="2709.57" departSpeed="0.00" departDelay="0.00" arrival="147.50" arrivalLane="up_2" arrivalPos="2900.00" arrivalSpeed="22.43" duration="147.50" routeLength="3090.10" waitingTime="0.00" waitingCount="0" stopTime="0.00" timeLoss="10.31" rerouteNo="0" devices="tripinfo_019" vType="VM_standard_car" speedFactor="1.16" vaporized=""/>
    <tripinfo id="155" depart="0.10" departLane="down_1" departPos="2732.59" departSpeed="0.00" departDelay="0.10" arrival="148.00" arrivalLane="up_1" arrivalPos="2900.00" arrivalSpeed="21.84" duration="147.90" routeLength="3067.08" waitingTime="0.00" waitingCount="0" stopTime="0.00" timeLoss="7.53" rerouteNo="0" devices="tripinfo_155" vType="VM_standard_car" speedFactor="1.12" vaporized=""/>
    <tripinfo id="095" depart="0.10" departLane="down_0" departPos="2741.36" departSpeed="0.00" departDelay="0.10" arrival="154.20" arrivalLane="up_1" arrivalPos="2900.00" arrivalSpeed="20.54" duration="154.10" routeLength="3058.31" waitingTime="0.00" waitingCount="0" stopTime="0.00" timeLoss="5.27" rerouteNo="0" devices="tripinfo_095" vType="VM_standard_car" speedFactor="1.06" vaporized=""/>
    <tripinfo id="124" depart="0.10" departLane="up_1" departPos="2848.43" departSpeed="0.00" departDelay="0.10" arrival="154.50" arrivalLane="down_0" arrivalPos="2897.77" arrivalSpeed="20.62" duration="154.40" routeLength="2950.42" waitingTime="0.00" waitingCount="0" stopTime="0.00" timeLoss="11.36" rerouteNo="0" devices="tripinfo_124" vType="VM_standard_car" speedFactor="1.06" vaporized=""/>
    <tripinfo id="164" depart="0.00" departLane="up_2" departPos="2826.29" departSpeed="0.00" departDelay="0.00" arrival="154.60" arrivalLane="down_1" arrivalPos="2897.77" arrivalSpeed="20.44" duration="154.60" routeLength="2972.56" waitingTime="0.00" waitingCount="0" stopTime="0.00" timeLoss="9.22" rerouteNo="0" devices="tripinfo_164" vType="VM_standard_car" speedFactor="1.05" vaporized=""/>
    <tripinfo id="035" depart="0.00" departLane="down_0" departPos="2830.61" departSpeed="0.00" departDelay="0.00" arrival="154.70" arrivalLane="up_0" arrivalPos="2900.00" arrivalSpeed="19.83" duration="154.70" routeLength="2969.06" waitingTime="0.00" waitingCount="0" stopTime="0.00" timeLoss="4.93" rerouteNo="0" devices="tripinfo_035" vType="VM_standard_car" speedFactor="1.02" vaporized=""/>
    <tripinfo id="170" depart="0.10" departLane="up_1" departPos="2736.33" departSpeed="0.00" departDelay="0.10" arrival="155.70" arrivalLane="down_2" arrivalPos="2897.77" arrivalSpeed="21.09" duration="155.60" routeLength="3062.52" waitingTime="0.00" waitingCount="0" stopTime="0.00" timeLoss="10.71" rerouteNo="0" devices="tripinfo_170" vType="VM_standard_car" speedFactor="1.09" vaporized=""/>
    <tripinfo id="098" depart="0.10" departLane="up_0" departPos="2844.78" departSpeed="0.00" departDelay="0.10" arrival="155.80" arrivalLane="down_1" arrivalPos="2897.77" arrivalSpeed="21.30" duration="155.70" routeLength="2954.07" waitingTime="0.00" waitingCount="0" stopTime="0.00" timeLoss="20.27" rerouteNo="0" devices="tripinfo_098" vType="VM_standard_car" speedFactor="1.12" vaporized=""/>
    <tripinfo id="089" depart="0.00" departLane="down_0" departPos="2846.46" departSpeed="0.00" departDelay="0.00" arrival="155.90" arrivalLane="up_1" arrivalPos="2900.00" arrivalSpeed="19.82" duration="155.90" routeLength="2953.21" waitingTime="0.00" waitingCount="0" stopTime="0.00" timeLoss="7.30" rerouteNo="0" devices="tripinfo_089" vType="VM_standard_car" speedFactor="1.02" vaporized=""/>
    <tripinfo id="094" depart="0.00" departLane="up_2" departPos="2732.00" departSpeed="0.00" departDelay="0.00" arrival="157.00" arrivalLane="down_1" arrivalPos="2897.77" arrivalSpeed="21.14" duration="157.00" routeLength="3066.85" waitingTime="0.00" waitingCount="0" stopTime="0.00" timeLoss="12.47" rerouteNo="0" devices="tripinfo_094" vType="VM_standard_car" speedFactor="1.09" vaporized=""/>
    <tripinfo id="159" depart="0.20" departLane="down_2" departPos="2437.38" departSpeed="0.00" departDelay="0.20" arrival="157.20" arrivalLane="up_2" arrivalPos="2900.00" arrivalSpeed="22.15" duration="157.00" routeLength="3362.29" waitingTime="0.00" waitingCount="0" stopTime="0.00" timeLoss="5.59" rerouteNo="0" devices="tripinfo_159" vType="VM_standard_car" speedFactor="1.14" vaporized=""/>
    <tripinfo id="099" depart="0.10" departLane="down_0" departPos="2634.46" departSpeed="0.00" departDelay="0.10" arrival="157.30" arrivalLane="up_1" arrivalPos="2900.00" arrivalSpeed="21.24" duration="157.20" routeLength="3165.21" waitingTime="0.00" waitingCount="0" stopTime="0.00" timeLoss="8.82" rerouteNo="0" devices="tripinfo_099" vType="VM_standard_car" speedFactor="1.10" vaporized=""/>
    <tripinfo id="196" depart="0.00" departLane="up_2" departPos="2876.92" departSpeed="0.00" departDelay="0.00" arrival="157.30" arrivalLane="down_0" arrivalPos="2897.77" arrivalSpeed="19.97" duration="157.30" routeLength="2921.93" waitingTime="0.00" waitingCount="0" stopTime="0.00" timeLoss="11.36" rerouteNo="0" devices="tripinfo_196" vType="VM_standard_car" speedFactor="1.03" vaporized=""/>
    <tripinfo id="173" depart="0.40" departLane="down_1" departPos="2318.03" departSpeed="0.00" departDelay="0.40" arrival="162.80" arrivalLane="up_0" arrivalPos="2900.00" arrivalSpeed="22.18" duration="162.40" routeLength="3481.64" waitingTime="0.00" waitingCount="0" stopTime="0.00" timeLoss="5.60" rerouteNo="0" devices="tripinfo_173" vType="VM_standard_car" speedFactor="1.14" vaporized=""/>
    <tripinfo id="241" depart="0.30" departLane="down_2" departPos="2665.56" departSpeed="0.00" departDelay="0.30" arrival="165.20" arrivalLane="up_1" arrivalPos="2900.00" arrivalSpeed="19.61" duration="164.90" routeLength="3134.11" waitingTime="0.00" waitingCount="0" stopTime="0.00" timeLoss="5.79" rerouteNo="0" devices="tripinfo_241" vType="VM_standard_car" speedFactor="1.01" vaporized=""/>
    <tripinfo id="142" depart="0.20" departLane="up_1" departPos="2866.25" departSpeed="0.00" departDelay="0.20" arrival="165.90" arrivalLane="down_0" arrivalPos="2897.77" arrivalSpeed="18.20" duration="165.70" routeLength="2932.60" waitingTime="0.00" waitingCount="0" stopTime="0.00" timeLoss="4.69" rerouteNo="0" devices="tripinfo_142" vType="VM_standard_car" speedFactor="0.94" vaporized=""/>
    <tripinfo id="233" depart="0.50" departLane="down_0" departPos="2221.43" departSpeed="0.00" departDelay="0.50" arrival="166.00" arrivalLane="up_1" arrivalPos="2900.00" arrivalSpeed="22.32" duration="165.50" routeLength="3578.24" waitingTime="0.00" waitingCount="0" stopTime="0.00" timeLoss="5.71" rerouteNo="0" devices="tripinfo_233" vType="VM_standard_car" speedFactor="1.15" vaporized=""/>
    <tripinfo id="022" depart="0.00" departLane="up_2" departPos="2769.22" departSpeed="0.00" departDelay="0.00" arrival="166.10" arrivalLane="down_1" arrivalPos="2897.77" arrivalSpeed="18.90" duration="166.10" routeLength="3029.63" waitingTime="0.00" waitingCount="0" stopTime="0.00" timeLoss="6.25" rerouteNo="0" devices="tripinfo_022" vType="VM_standard_car" speedFactor="0.97" vaporized=""/>
    <tripinfo id="183" depart="0.40" departLane="down_1" departPos="2425.16" departSpeed="0.00" departDelay="0.40" arrival="167.30" arrivalLane="up_1" arrivalPos="2900.00" arrivalSpeed="20.94" duration="166.90" routeLength="3374.51" waitingTime="0.00" waitingCount="0" stopTime="0.00" timeLoss="6.55" rerouteNo="0" devices="tripinfo_183" vType="VM_standard_car" speedFactor="1.08" vaporized=""/>
    <tripinfo id="239" depart="0.40" departLane="down_0" departPos="2304.43" departSpeed="0.00" departDelay="0.40" arrival="167.80" arrivalLane="up_2" arrivalPos="2900.00" arrivalSpeed="21.85" duration="167.40" routeLength="3495.24" waitingTime="0.00" waitingCount="0" stopTime="0.00" timeLoss="8.01" rerouteNo="0" devices="tripinfo_239" vType="VM_standard_car" speedFactor="1.13" vaporized=""/>
    <tripinfo id="063" depart="0.00" departLane="down_2" departPos="2634.51" departSpeed="0.00" departDelay="0.00" arrival="170.20" arrivalLane="up_0" arrivalPos="2900.00" arrivalSpeed="19.12" duration="170.20" routeLength="3165.16" waitingTime="0.00" waitingCount="0" stopTime="0.00" timeLoss="5.25" rerouteNo="0" devices="tripinfo_063" vType="VM_standard_car" speedFactor="0.99" vaporized=""/>
    <tripinfo id="229" depart="0.30" departLane="down_2" departPos="2582.91" departSpeed="0.00" departDelay="0.30" arrival="171.60" arrivalLane="up_0" arrivalPos="2900.00" arrivalSpeed="19.27" duration="171.30" routeLength="3216.76" waitingTime="0.00" waitingCount="0" stopTime="0.00" timeLoss="4.98" rerouteNo="0" devices="tripinfo_229" vType="VM_standard_car" speedFactor="0.99" vaporized=""/>
    <tripinfo id="234" depart="0.20" departLane="up_1" departPos="2818.94" departSpeed="0.00" departDelay="0.20" arrival="173.00" arrivalLane="down_0" arrivalPos="2897.77" arrivalSpeed="17.72" duration="172.80" routeLength="2979.91" waitingTime="0.00" waitingCount="0" stopTime="0.00" timeLoss="4.61" rerouteNo="0" devices="tripinfo_234" vType="VM_standard_car" speedFactor="0.91" vaporized=""/>
    <tripinfo id="203" depart="0.30" departLane="down_2" departPos="2186.83" departSpeed="0.00" departDelay="0.30" arrival="174.00" arrivalLane="up_1" arrivalPos="2900.00" arrivalSpeed="21.54" duration="173.70" routeLength="3612.84" waitingTime="0.00" waitingCount="0" stopTime="0.00" timeLoss="6.07" rerouteNo="0" devices="tripinfo_203" vType="VM_standard_car" speedFactor="1.11" vaporized=""/>
    <tripinfo id="008" depart="0.00" departLane="up_2" departPos="2723.21" departSpeed="0.00" departDelay="0.00" arrival="176.60" arrivalLane="down_1" arrivalPos="2897.77" arrivalSpeed="18.21" duration="176.60" routeLength="3075.64" waitingTime="0.00" waitingCount="0" stopTime="0.00" timeLoss="7.93" rerouteNo="0" devices="tripinfo_008" vType="VM_standard_car" speedFactor="0.94" vaporized=""/>
    <tripinfo id="138" depart="0.10" departLane="up_1" departPos="2706.21" departSpeed="0.00" departDelay="0.10" arrival="177.00" arrivalLane="down_0" arrivalPos="2897.77" arrivalSpeed="18.92" duration="176.90" routeLength="3092.64" waitingTime="0.00" waitingCount="0" stopTime="0.00" timeLoss="18.45" rerouteNo="0" devices="tripinfo_138" vType="VM_standard_car" speedFactor="1.00" vaporized=""/>
    <tripinfo id="059" depart="0.00" departLane="down_0" departPos="2617.74" departSpeed="0.00" departDelay="0.00" arrival="177.50" arrivalLane="up_0" arrivalPos="2900.00" arrivalSpeed="18.85" duration="177.50" routeLength="3181.93" waitingTime="0.00" waitingCount="0" stopTime="0.00" timeLoss="8.74" rerouteNo="0" devices="tripinfo_059" vType="VM_standard_car" speedFactor="0.97" vaporized=""/>
    <tripinfo id="200" depart="0.30" departLane="up_1" departPos="2657.12" departSpeed="0.00" departDelay="0.30" arrival="177.60" arrivalLane="down_2" arrivalPos="2897.77" arrivalSpeed="18.35" duration="177.30" routeLength="3141.72" waitingTime="0.00" waitingCount="0" stopTime="0.00" timeLoss="6.72" rerouteNo="0" devices="tripinfo_200" vType="VM_standard_car" speedFactor="0.95" vaporized=""/>
    <tripinfo id="134" depart="0.00" departLane="up_2" departPos="2613.10" departSpeed="0.00" departDelay="0.00" arrival="178.90" arrivalLane="down_2" arrivalPos="2897.77" arrivalSpeed="21.25" duration="178.90" routeLength="3185.75" waitingTime="0.00" waitingCount="0" stopTime="0.00" timeLoss="45.25" rerouteNo="0" devices="tripinfo_134" vType="VM_standard_car" speedFactor="1.23" vaporized=""/>
    <tripinfo id="204" depart="0.20" departLane="up_1" departPos="2671.75" departSpeed="0.00" departDelay="0.20" arrival="178.90" arrivalLane="down_1" arrivalPos="2897.77" arrivalSpeed="20.70" duration="178.70" routeLength="3127.10" waitingTime="0.00" waitingCount="0" stopTime="0.00" timeLoss="28.01" rerouteNo="0" devices="tripinfo_204" vType="VM_standard_car" speedFactor="1.07" vaporized=""/>
    <tripinfo id="179" depart="0.20" departLane="down_2" departPos="2251.62" departSpeed="0.00" departDelay="0.20" arrival="179.20" arrivalLane="up_1" arrivalPos="2900.00" arrivalSpeed="20.62" duration="179.00" routeLength="3548.05" waitingTime="0.00" waitingCount="0" stopTime="0.00" timeLoss="7.59" rerouteNo="0" devices="tripinfo_179" vType="VM_standard_car" speedFactor="1.06" vaporized=""/>
    <tripinfo id="031" depart="0.00" departLane="down_2" departPos="1966.65" departSpeed="0.00" departDelay="0.00" arrival="179.90" arrivalLane="up_2" arrivalPos="2900.00" arrivalSpeed="22.42" duration="179.90" routeLength="3833.02" waitingTime="0.00" waitingCount="0" stopTime="0.00" timeLoss="9.11" rerouteNo="0" devices="tripinfo_031" vType="VM_standard_car" speedFactor="1.15" vaporized=""/>
    <tripinfo id="211" depart="0.30" departLane="down_0" departPos="2333.86" departSpeed="0.00" departDelay="0.30" arrival="180.00" arrivalLane="up_0" arrivalPos="2900.00" arrivalSpeed="20.09" duration="179.70" routeLength="3465.81" waitingTime="0.00" waitingCount="0" stopTime="0.00" timeLoss="7.76" rerouteNo="0" devices="tripinfo_211" vType="VM_standard_car" speedFactor="1.04" vaporized=""/>
    <tripinfo id="056" depart="0.00" departLane="up_2" departPos="2739.87" departSpeed="0.00" departDelay="0.00" arrival="180.10" arrivalLane="down_0" arrivalPos="2897.77" arrivalSpeed="17.40" duration="180.10" routeLength="3058.98" waitingTime="0.00" waitingCount="0" stopTime="0.00" timeLoss="5.11" rerouteNo="0" devices="tripinfo_056" vType="VM_standard_car" speedFactor="0.90" vaporized=""/>
    <tripinfo id="058" depart="0.00" departLane="up_0" departPos="2572.91" departSpeed="0.00" departDelay="0.00" arrival="180.20" arrivalLane="down_2" arrivalPos="2897.77" arrivalSpeed="19.83" duration="180.20" routeLength="3225.94" waitingTime="0.00" waitingCount="0" stopTime="0.00" timeLoss="18.15" rerouteNo="0" devices="tripinfo_058" vType="VM_standard_car" speedFactor="1.02" vaporized=""/>
    <tripinfo id="120" depart="0.00" departLane="up_0" departPos="2591.45" departSpeed="0.00" departDelay="0.00" arrival="181.50" arrivalLane="down_0" arrivalPos="2897.77" arrivalSpeed="18.21" duration="181.50" routeLength="3207.40" waitingTime="0.00" waitingCount="0" stopTime="0.00" timeLoss="6.32" rerouteNo="0" devices="tripinfo_120" vType="VM_standard_car" speedFactor="0.94" vaporized=""/>
    <tripinfo id="154" depart="0.20" departLane="up_2" departPos="2410.46" departSpeed="0.00" departDelay="0.20" arrival="181.50" arrivalLane="down_2" arrivalPos="2897.77" arrivalSpeed="20.70" duration="181.30" routeLength="3388.39" waitingTime="0.00" waitingCount="0" stopTime="0.00" timeLoss="17.66" rerouteNo="0" devices="tripinfo_154" vType="VM_standard_car" speedFactor="1.06" vaporized=""/>
    <tripinfo id="062" depart="0.00" departLane="up_0" departPos="2664.02" departSpeed="0.00" departDelay="0.00" arrival="181.80" arrivalLane="down_1" arrivalPos="2897.77" arrivalSpeed="19.75" duration="181.80" routeLength="3134.83" waitingTime="0.00" waitingCount="0" stopTime="0.00" timeLoss="23.11" rerouteNo="0" devices="tripinfo_062" vType="VM_standard_car" speedFactor="1.02" vaporized=""/>
    <tripinfo id="076" depart="0.10" departLane="up_2" departPos="2376.62" departSpeed="0.00" departDelay="0.10" arrival="182.90" arrivalLane="down_2" arrivalPos="2897.77" arrivalSpeed="20.01" duration="182.80" routeLength="3422.23" waitingTime="0.00" waitingCount="0" stopTime="0.00" timeLoss="12.35" rerouteNo="0" devices="tripinfo_076" vType="VM_standard_car" speedFactor="1.03" vaporized=""/>
    <tripinfo id="148" depart="0.00" departLane="up_2" departPos="2480.40" departSpeed="0.00" departDelay="0.00" arrival="183.40" arrivalLane="down_0" arrivalPos="2897.77" arrivalSpeed="18.71" duration="183.40" routeLength="3318.45" waitingTime="0.00" waitingCount="0" stopTime="0.00" timeLoss="6.86" rerouteNo="0" devices="tripinfo_148" vType="VM_standard_car" speedFactor="0.97" vaporized=""/>
    <tripinfo id="084" depart="0.00" departLane="up_2" departPos="2173.75" departSpeed="0.00" departDelay="0.00" arrival="184.20" arrivalLane="down_2" arrivalPos="2897.77" arrivalSpeed="22.26" duration="184.20" routeLength="3625.10" waitingTime="0.00" waitingCount="0" stopTime="0.00" timeLoss="21.75" rerouteNo="0" devices="tripinfo_084" vType="VM_standard_car" speedFactor="1.15" vaporized=""/>
    <tripinfo id="126" depart="0.00" departLane="up_2" departPos="2314.66" departSpeed="0.00" departDelay="0.00" arrival="184.50" arrivalLane="down_1" arrivalPos="2897.77" arrivalSpeed="20.04" duration="184.50" routeLength="3484.19" waitingTime="0.00" waitingCount="0" stopTime="0.00" timeLoss="10.93" rerouteNo="0" devices="tripinfo_126" vType="VM_standard_car" speedFactor="1.03" vaporized=""/>
    <tripinfo id="215" depart="0.30" departLane="down_2" departPos="2004.56" departSpeed="0.00" departDelay="0.30" arrival="185.30" arrivalLane="up_0" arrivalPos="2900.00" arrivalSpeed="21.11" duration="185.00" routeLength="3795.11" waitingTime="0.00" waitingCount="0" stopTime="0.00" timeLoss="5.64" rerouteNo="0" devices="tripinfo_215" vType="VM_standard_car" speedFactor="1.09" vaporized=""/>
    <tripinfo id="100" depart="0.00" departLane="up_2" departPos="2206.93" departSpeed="0.00" departDelay="0.00" arrival="185.50" arrivalLane="down_2" arrivalPos="2897.77" arrivalSpeed="20.65" duration="185.50" routeLength="3591.92" waitingTime="0.00" waitingCount="0" stopTime="0.00" timeLoss="12.09" rerouteNo="0" devices="tripinfo_100" vType="VM_standard_car" speedFactor="1.06" vaporized=""/>
    <tripinfo id="122" depart="0.20" departLane="up_2" departPos="2185.50" departSpeed="0.00" departDelay="0.20" arrival="187.00" arrivalLane="down_1" arrivalPos="2897.77" arrivalSpeed="20.04" duration="186.80" routeLength="3613.35" waitingTime="0.00" waitingCount="0" stopTime="0.00" timeLoss="6.59" rerouteNo="0" devices="tripinfo_122" vType="VM_standard_car" speedFactor="1.03" vaporized=""/>
    <tripinfo id="000" depart="0.00" departLane="up_2" departPos="2066.23" departSpeed="0.00" departDelay="0.00" arrival="188.20" arrivalLane="down_2" arrivalPos="2897.77" arrivalSpeed="20.52" duration="188.20" routeLength="3732.62" waitingTime="0.00" waitingCount="0" stopTime="0.00" timeLoss="7.15" rerouteNo="0" devices="tripinfo_000" vType="VM_standard_car" speedFactor="1.06" vaporized=""/>
    <tripinfo id="172" depart="0.00" departLane="up_2" departPos="2712.49" departSpeed="0.00" departDelay="0.00" arrival="189.50" arrivalLane="down_1" arrivalPos="2897.77" arrivalSpeed="17.32" duration="189.50" routeLength="3086.36" waitingTime="0.00" waitingCount="0" stopTime="0.00" timeLoss="11.75" rerouteNo="0" devices="tripinfo_172" vType="VM_standard_car" speedFactor="0.89" vaporized=""/>
    <tripinfo id="136" depart="0.10" departLane="up_1" departPos="1822.37" departSpeed="0.00" departDelay="0.10" arrival="189.60" arrivalLane="down_2" arrivalPos="2897.77" arrivalSpeed="21.70" duration="189.50" routeLength="3976.48" waitingTime="0.00" waitingCount="0" stopTime="0.00" timeLoss="6.79" rerouteNo="0" devices="tripinfo_136" vType="VM_standard_car" speedFactor="1.12" vaporized=""/>
    <tripinfo id="199" depart="0.30" departLane="down_2" departPos="2828.10" departSpeed="0.00" departDelay="0.30" arrival="189.80" arrivalLane="up_0" arrivalPos="2900.00" arrivalSpeed="16.05" duration="189.50" routeLength="2971.57" waitingTime="0.00" waitingCount="0" stopTime="0.00" timeLoss="4.86" rerouteNo="0" devices="tripinfo_199" vType="VM_standard_car" speedFactor="0.83" vaporized=""/>
    <tripinfo id="092" depart="0.10" departLane="up_2" departPos="2784.49" departSpeed="0.00" departDelay="0.10" arrival="190.40" arrivalLane="down_0" arrivalPos="2897.77" arrivalSpeed="16.15" duration="190.30" routeLength="3014.36" waitingTime="0.00" waitingCount="0" stopTime="0.00" timeLoss="4.29" rerouteNo="0" devices="tripinfo_092" vType="VM_standard_car" speedFactor="0.83" vaporized=""/>
    <tripinfo id="193" depart="0.40" departLane="down_0" departPos="1983.42" departSpeed="0.00" departDelay="0.40" arrival="190.60" arrivalLane="up_1" arrivalPos="2900.00" arrivalSpeed="20.74" duration="190.20" routeLength="3816.25" waitingTime="0.00" waitingCount="0" stopTime="0.00" timeLoss="6.38" rerouteNo="0" devices="tripinfo_193" vType="VM_standard_car" speedFactor="1.07" vaporized=""/>
    <tripinfo id="162" depart="0.20" departLane="up_0" departPos="2246.30" departSpeed="0.00" departDelay="0.20" arrival="190.90" arrivalLane="down_0" arrivalPos="2897.77" arrivalSpeed="19.31" duration="190.70" routeLength="3552.55" waitingTime="0.00" waitingCount="0" stopTime="0.00" timeLoss="6.66" rerouteNo="0" devices="tripinfo_162" vType="VM_standard_car" speedFactor="0.99" vaporized=""/>
    <tripinfo id="186" depart="0.00" departLane="up_2" departPos="1954.49" departSpeed="0.00" departDelay="0.00" arrival="190.90" arrivalLane="down_2" arrivalPos="2897.77" arrivalSpeed="20.96" duration="190.90" routeLength="3844.36" waitingTime="0.00" waitingCount="0" stopTime="0.00" timeLoss="7.69" rerouteNo="0" devices="tripinfo_186" vType="VM_standard_car" speedFactor="1.08" vaporized=""/>
    <tripinfo id="228" depart="0.40" departLane="up_0" departPos="2717.68" departSpeed="0.00" departDelay="0.40" arrival="191.70" arrivalLane="down_0" arrivalPos="2897.77" arrivalSpeed="18.40" duration="191.30" routeLength="3081.17" waitingTime="0.00" waitingCount="0" stopTime="0.00" timeLoss="46.20" rerouteNo="0" devices="tripinfo_228" vType="VM_standard_car" speedFactor="1.09" vaporized=""/>
    <tripinfo id="006" depart="0.00" departLane="up_2" departPos="1982.46" departSpeed="0.00" departDelay="0.00" arrival="193.10" arrivalLane="down_2" arrivalPos="2897.77" arrivalSpeed="20.33" duration="193.10" routeLength="3816.39" waitingTime="0.00" waitingCount="0" stopTime="0.00" timeLoss="5.42" rerouteNo="0" devices="tripinfo_006" vType="VM_standard_car" speedFactor="1.05" vaporized=""/>
    <tripinfo id="153" depart="0.20" departLane="down_0" departPos="2418.56" departSpeed="0.00" departDelay="0.20" arrival="194.00" arrivalLane="up_0" arrivalPos="2900.00" arrivalSpeed="17.96" duration="193.80" routeLength="3381.11" waitingTime="0.00" waitingCount="0" stopTime="0.00" timeLoss="6.28" rerouteNo="0" devices="tripinfo_153" vType="VM_standard_car" speedFactor="0.93" vaporized=""/>
    <tripinfo id="188" depart="0.00" departLane="up_2" departPos="2285.52" departSpeed="0.00" departDelay="0.00" arrival="194.10" arrivalLane="down_1" arrivalPos="2897.77" arrivalSpeed="18.87" duration="194.10" routeLength="3513.33" waitingTime="0.00" waitingCount="0" stopTime="0.00" timeLoss="8.11" rerouteNo="0" devices="tripinfo_188" vType="VM_standard_car" speedFactor="0.97" vaporized=""/>
    <tripinfo id="130" depart="0.10" departLane="up_0" departPos="1992.71" departSpeed="0.00" departDelay="0.10" arrival="196.00" arrivalLane="down_1" arrivalPos="2897.77" arrivalSpeed="20.04" duration="195.90" routeLength="3806.14" waitingTime="0.00" waitingCount="0" stopTime="0.00" timeLoss="6.32" rerouteNo="0" devices="tripinfo_130" vType="VM_standard_car" speedFactor="1.03" vaporized=""/>
    <tripinfo id="044" depart="0.00" departLane="up_2" departPos="1919.27" departSpeed="0.00" departDelay="0.00" arrival="196.50" arrivalLane="down_2" arrivalPos="2897.77" arrivalSpeed="20.25" duration="196.50" routeLength="3879.58" waitingTime="0.00" waitingCount="0" stopTime="0.00" timeLoss="5.27" rerouteNo="0" devices="tripinfo_044" vType="VM_standard_car" speedFactor="1.04" vaporized=""/>
    <tripinfo id="067" depart="0.00" departLane="down_0" departPos="2444.77" departSpeed="0.00" departDelay="0.00" arrival="196.70" arrivalLane="up_0" arrivalPos="2900.00" arrivalSpeed="17.74" duration="196.70" routeLength="3354.90" waitingTime="0.00" waitingCount="0" stopTime="0.00" timeLoss="8.08" rerouteNo="0" devices="tripinfo_067" vType="VM_standard_car" speedFactor="0.91" vaporized=""/>
    <tripinfo id="088" depart="0.00" departLane="up_0" departPos="2143.19" departSpeed="0.00" departDelay="0.00" arrival="197.90" arrivalLane="down_1" arrivalPos="2897.77" arrivalSpeed="19.58" duration="197.90" routeLength="3655.66" waitingTime="0.00" waitingCount="0" stopTime="0.00" timeLoss="11.26" rerouteNo="0" devices="tripinfo_088" vType="VM_standard_car" speedFactor="1.01" vaporized=""/>
    <tripinfo id="171" depart="0.30" departLane="down_1" departPos="2472.10" departSpeed="0.00" departDelay="0.30" arrival="198.10" arrivalLane="up_1" arrivalPos="2900.00" arrivalSpeed="17.38" duration="197.80" routeLength="3327.57" waitingTime="0.00" waitingCount="0" stopTime="0.00" timeLoss="6.87" rerouteNo="0" devices="tripinfo_171" vType="VM_standard_car" speedFactor="0.90" vaporized=""/>
    <tripinfo id="024" depart="0.00" departLane="up_1" departPos="2691.51" departSpeed="0.00" departDelay="0.00" arrival="198.20" arrivalLane="down_0" arrivalPos="2897.77" arrivalSpeed="16.01" duration="198.20" routeLength="3107.34" waitingTime="0.00" waitingCount="0" stopTime="0.00" timeLoss="4.69" rerouteNo="0" devices="tripinfo_024" vType="VM_standard_car" speedFactor="0.83" vaporized=""/>
    <tripinfo id="222" depart="0.40" departLane="up_1" departPos="2616.02" departSpeed="0.00" departDelay="0.40" arrival="200.60" arrivalLane="down_0" arrivalPos="2897.77" arrivalSpeed="16.16" duration="200.20" routeLength="3182.83" waitingTime="0.00" waitingCount="0" stopTime="0.00" timeLoss="4.30" rerouteNo="0" devices="tripinfo_222" vType="VM_standard_car" speedFactor="0.84" vaporized=""/>
    <tripinfo id="090" depart="0.10" departLane="up_0" departPos="1951.99" departSpeed="0.00" departDelay="0.10" arrival="200.70" arrivalLane="down_2" arrivalPos="2897.77" arrivalSpeed="19.69" duration="200.60" routeLength="3846.86" waitingTime="0.00" waitingCount="0" stopTime="0.00" timeLoss="6.04" rerouteNo="0" devices="tripinfo_090" vType="VM_standard_car" speedFactor="1.02" vaporized=""/>
    <tripinfo id="232" depart="0.40" departLane="up_0" departPos="2155.00" departSpeed="0.00" departDelay="0.40" arrival="201.40" arrivalLane="down_1" arrivalPos="2897.77" arrivalSpeed="18.78" duration="201.00" routeLength="3643.85" waitingTime="0.00" waitingCount="0" stopTime="0.00" timeLoss="7.78" rerouteNo="0" devices="tripinfo_232" vType="VM_standard_car" speedFactor="0.97" vaporized=""/>
    <tripinfo id="158" depart="0.00" departLane="up_2" departPos="2365.85" departSpeed="0.00" departDelay="0.00" arrival="201.90" arrivalLane="down_0" arrivalPos="2897.77" arrivalSpeed="17.69" duration="201.90" routeLength="3433.00" waitingTime="0.00" waitingCount="0" stopTime="0.00" timeLoss="7.87" rerouteNo="0" devices="tripinfo_158" vType="VM_standard_car" speedFactor="0.91" vaporized=""/>
    <tripinfo id="001" depart="0.00" departLane="down_2" departPos="2153.79" departSpeed="0.00" departDelay="0.00" arrival="204.60" arrivalLane="up_0" arrivalPos="2900.00" arrivalSpeed="18.21" duration="204.60" routeLength="3645.88" waitingTime="0.00" waitingCount="0" stopTime="0.00" timeLoss="4.77" rerouteNo="0" devices="tripinfo_001" vType="VM_standard_car" speedFactor="0.94" vaporized=""/>
    <tripinfo id="066" depart="0.00" departLane="up_0" departPos="2273.70" departSpeed="0.00" departDelay="0.00" arrival="204.60" arrivalLane="down_0" arrivalPos="2897.77" arrivalSpeed="17.61" duration="204.60" routeLength="3525.15" waitingTime="0.00" waitingCount="0" stopTime="0.00" timeLoss="4.67" rerouteNo="0" devices="tripinfo_066" vType="VM_standard_car" speedFactor="0.91" vaporized=""/>
    <tripinfo id="139" depart="0.10" departLane="down_0" departPos="2147.92" departSpeed="0.00" departDelay="0.10" arrival="204.60" arrivalLane="up_2" arrivalPos="2900.00" arrivalSpeed="18.53" duration="204.50" routeLength="3651.75" waitingTime="0.00" waitingCount="0" stopTime="0.00" timeLoss="7.57" rerouteNo="0" devices="tripinfo_139" vType="VM_standard_car" speedFactor="0.95" vaporized=""/>
    <tripinfo id="070" depart="0.10" departLane="up_0" departPos="1831.93" departSpeed="0.00" departDelay="0.10" arrival="204.70" arrivalLane="down_1" arrivalPos="2897.77" arrivalSpeed="19.80" duration="204.60" routeLength="3966.92" waitingTime="0.00" waitingCount="0" stopTime="0.00" timeLoss="5.22" rerouteNo="0" devices="tripinfo_070" vType="VM_standard_car" speedFactor="1.02" vaporized=""/>