<?xml version="1.0" encoding="UTF-8"?>

<!-- generated on 2025-04-07 15:39:34 by Eclipse SUMO sumo Version 1.22.0
<sumoConfiguration xmlns:xsi="http://www.w3.org/2001/XMLSchema-instance" xsi:noNamespaceSchemaLocation="http://sumo.dlr.de/xsd/sumoConfiguration.xsd">

    <input>
        <net-file value="C:/Users/Vaideeswaran/Downloads/tr_103766v010101p0/urban_60kmph_300vh/urban_60kmph.net.xml"/>
        <route-files value="C:/Users/Vaideeswaran/Downloads/tr_103766v010101p0/urban_60kmph_300vh/urban_300vh.rou.xml"/>
        <additional-files value="C:/Users/Vaideeswaran/Downloads/tr_103766v010101p0/urban_60kmph_300vh/vtypes.add.xml"/>
    </input>

    <output>
        <tripinfo-output value="C:/Users/Vaideeswaran/Downloads/tr_103766v010101p0/urban_60kmph_300vh/tripinfos.xml"/>
    </output>

    <report>
        <log value="C:/Users/Vaideeswaran/Downloads/tr_103766v010101p0/urban_60kmph_300vh/log.txt"/>
    </report>

    <traci_server>
        <remote-port value="65481"/>
    </traci_server>

</sumoConfiguration>
-->

<tripinfos xmlns:xsi="http://www.w3.org/2001/XMLSchema-instance" xsi:noNamespaceSchemaLocation="http://sumo.dlr.de/xsd/tripinfo_file.xsd">
    <tripinfo id="217" depart="1.00" departLane="DB_2" departPos="331.91" departSpeed="0.00" departDelay="1.00" arrival="225.00" arrivalLane="CA_2" arrivalPos="410.00" arrivalSpeed="17.72" duration="224.00" routeLength="3383.22" waitingTime="0.00" waitingCount="0" stopTime="0.00" timeLoss="31.07" rerouteNo="0" devices="tripinfo_217" vType="VM_standard_car" speedFactor="1.07" vaporized=""/>
    <tripinfo id="228" depart="1.00" departLane="nA_1" departPos="318.18" departSpeed="0.00" departDelay="1.00" arrival="236.00" arrivalLane="nB_2" arrivalPos="411.00" arrivalSpeed="17.30" duration="235.00" routeLength="3392.30" waitingTime="6.00" waitingCount="1" stopTime="0.00" timeLoss="46.22" rerouteNo="0" devices="tripinfo_228" vType="VM_standard_car" speedFactor="1.09" vaporized=""/>
    <tripinfo id="072" depart="0.00" departLane="s3_1" departPos="202.73" departSpeed="0.00" departDelay="0.00" arrival="238.00" arrivalLane="w3_1" arrivalPos="411.50" arrivalSpeed="15.61" duration="238.00" routeLength="3127.33" waitingTime="3.00" waitingCount="1" stopTime="0.00" timeLoss="34.67" rerouteNo="0" devices="tripinfo_072" vType="VM_standard_car" speedFactor="0.94" vaporized=""/>
    <tripinfo id="248" depart="7.00" departLane="Aw_2" departPos="209.48" departSpeed="0.00" departDelay="7.00" arrival="244.00" arrivalLane="s2_2" arrivalPos="227.00" arrivalSpeed="18.63" duration="237.00" routeLength="2963.24" waitingTime="36.00" waitingCount="1" stopTime="0.00" timeLoss="75.77" rerouteNo="0" devices="tripinfo_248" vType="VM_standard_car" speedFactor="1.14" vaporized=""/>
    <tripinfo id="000" depart="0.00" departLane="BD_1" departPos="292.12" departSpeed="0.00" departDelay="0.00" arrival="246.00" arrivalLane="n3_2" arrivalPos="228.50" arrivalSpeed="16.85" duration="246.00" routeLength="3076.08" waitingTime="28.00" waitingCount="1" stopTime="0.00" timeLoss="69.50" rerouteNo="0" devices="tripinfo_000" vType="VM_standard_car" speedFactor="1.06" vaporized=""/>
    <tripinfo id="003" depart="0.00" departLane="cS_1" departPos="101.48" departSpeed="0.00" departDelay="0.00" arrival="247.00" arrivalLane="e2_2" arrivalPos="410.00" arrivalSpeed="17.41" duration="247.00" routeLength="3442.53" waitingTime="8.00" waitingCount="1" stopTime="0.00" timeLoss="52.54" rerouteNo="0" devices="tripinfo_003" vType="VM_standard_car" speedFactor="1.08" vaporized=""/>
    <tripinfo id="212" depart="0.00" departLane="Cw_2" departPos="211.88" departSpeed="0.00" departDelay="0.00" arrival="247.00" arrivalLane="s3_2" arrivalPos="228.50" arrivalSpeed="15.95" duration="247.00" routeLength="3121.92" waitingTime="13.00" waitingCount="2" stopTime="0.00" timeLoss="53.90" rerouteNo="0" devices="tripinfo_212" vType="VM_standard_car" speedFactor="1.00" vaporized=""/>
    <tripinfo id="289" depart="0.00" departLane="nB_2" departPos="57.87" departSpeed="0.00" departDelay="0.00" arrival="249.00" arrivalLane="n2_2" arrivalPos="227.00" arrivalSpeed="19.07" duration="249.00" routeLength="3476.25" waitingTime="5.00" waitingCount="1" stopTime="0.00" timeLoss="70.18" rerouteNo="0" devices="tripinfo_289" vType="VM_standard_car" speedFactor="1.19" vaporized=""/>
    <tripinfo id="026" depart="0.00" departLane="n2_2" departPos="212.26" departSpeed="0.00" departDelay="0.00" arrival="251.00" arrivalLane="s3_1" arrivalPos="228.50" arrivalSpeed="14.38" duration="251.00" routeLength="3104.96" waitingTime="3.00" waitingCount="1" stopTime="0.00" timeLoss="43.22" rerouteNo="0" devices="tripinfo_026" vType="VM_standard_car" speedFactor="0.92" vaporized=""/>
    <tripinfo id="230" depart="0.00" departLane="e1_1" departPos="302.53" departSpeed="0.00" departDelay="0.00" arrival="251.00" arrivalLane="s1_2" arrivalPos="228.50" arrivalSpeed="16.67" duration="251.00" routeLength="3041.32" waitingTime="22.00" waitingCount="3" stopTime="0.00" timeLoss="70.79" rerouteNo="0" devices="tripinfo_230" vType="VM_standard_car" speedFactor="1.04" vaporized=""/>
    <tripinfo id="089" depart="0.00" departLane="An_2" departPos="64.78" departSpeed="0.00" departDelay="0.00" arrival="252.00" arrivalLane="w3_2" arrivalPos="411.50" arrivalSpeed="16.45" duration="252.00" routeLength="3301.87" waitingTime="10.00" waitingCount="3" stopTime="0.00" timeLoss="54.44" rerouteNo="0" devices="tripinfo_089" vType="VM_standard_car" speedFactor="1.02" vaporized=""/>
    <tripinfo id="192" depart="1.00" departLane="AC_1" departPos="323.93" departSpeed="0.00" departDelay="1.00" arrival="253.00" arrivalLane="e3_2" arrivalPos="411.50" arrivalSpeed="18.09" duration="252.00" routeLength="3204.42" waitingTime="15.00" waitingCount="2" stopTime="0.00" timeLoss="71.60" rerouteNo="0" devices="tripinfo_192" vType="VM_standard_car" speedFactor="1.10" vaporized=""/>
    <tripinfo id="275" depart="0.00" departLane="sC_1" departPos="60.32" departSpeed="0.00" departDelay="0.00" arrival="254.00" arrivalLane="s2_2" arrivalPos="227.00" arrivalSpeed="15.56" duration="254.00" routeLength="3484.73" waitingTime="4.00" waitingCount="1" stopTime="0.00" timeLoss="35.79" rerouteNo="0" devices="tripinfo_275" vType="VM_standard_car" speedFactor="0.97" vaporized=""/>
    <tripinfo id="288" depart="0.00" departLane="DB_2" departPos="233.89" departSpeed="0.00" departDelay="0.00" arrival="254.00" arrivalLane="CA_1" arrivalPos="410.00" arrivalSpeed="18.33" duration="254.00" routeLength="3475.59" waitingTime="13.00" waitingCount="1" stopTime="0.00" timeLoss="61.05" rerouteNo="0" devices="tripinfo_288" vType="VM_standard_car" speedFactor="1.10" vaporized=""/>
    <tripinfo id="025" depart="0.00" departLane="DB_1" departPos="244.45" departSpeed="0.00" departDelay="0.00" arrival="255.00" arrivalLane="s2_1" arrivalPos="227.00" arrivalSpeed="13.63" duration="255.00" routeLength="3058.27" waitingTime="3.00" waitingCount="1" stopTime="0.00" timeLoss="38.95" rerouteNo="0" devices="tripinfo_025" vType="VM_standard_car" speedFactor="0.87" vaporized=""/>
    <tripinfo id="154" depart="1.00" departLane="cS_1" departPos="388.15" departSpeed="0.00" departDelay="1.00" arrival="256.00" arrivalLane="s1_1" arrivalPos="228.50" arrivalSpeed="17.74" duration="255.00" routeLength="3309.91" waitingTime="2.00" waitingCount="1" stopTime="0.00" timeLoss="65.02" rerouteNo="0" devices="tripinfo_154" vType="VM_standard_car" speedFactor="1.06" vaporized=""/>
    <tripinfo id="132" depart="0.00" departLane="sD_2" departPos="88.55" departSpeed="0.00" departDelay="0.00" arrival="257.00" arrivalLane="sC_1" arrivalPos="410.00" arrivalSpeed="15.60" duration="257.00" routeLength="3632.22" waitingTime="0.00" waitingCount="0" stopTime="0.00" timeLoss="26.86" rerouteNo="0" devices="tripinfo_132" vType="VM_standard_car" speedFactor="0.96" vaporized=""/>
    <tripinfo id="221" depart="0.00" departLane="n3_1" departPos="224.94" departSpeed="0.00" departDelay="0.00" arrival="257.00" arrivalLane="n2_2" arrivalPos="227.00" arrivalSpeed="10.81" duration="257.00" routeLength="3312.83" waitingTime="17.00" waitingCount="2" stopTime="0.00" timeLoss="80.88" rerouteNo="0" devices="tripinfo_221" vType="VM_standard_car" speedFactor="1.15" vaporized=""/>
    <tripinfo id="075" depart="0.00" departLane="sD_1" departPos="192.82" departSpeed="0.00" departDelay="0.00" arrival="258.00" arrivalLane="DB_1" arrivalPos="410.00" arrivalSpeed="15.41" duration="258.00" routeLength="3705.30" waitingTime="0.00" waitingCount="0" stopTime="0.00" timeLoss="28.38" rerouteNo="0" devices="tripinfo_075" vType="VM_standard_car" speedFactor="0.98" vaporized=""/>
    <tripinfo id="100" depart="0.00" departLane="Be_1" departPos="19.20" departSpeed="0.00" departDelay="0.00" arrival="258.00" arrivalLane="sC_2" arrivalPos="410.00" arrivalSpeed="17.49" duration="258.00" routeLength="3283.52" waitingTime="13.00" waitingCount="1" stopTime="0.00" timeLoss="67.33" rerouteNo="0" devices="tripinfo_100" vType="VM_standard_car" speedFactor="1.06" vaporized=""/>
    <tripinfo id="155" depart="0.00" departLane="w1_1" departPos="32.34" departSpeed="0.00" departDelay="0.00" arrival="258.00" arrivalLane="s1_1" arrivalPos="228.50" arrivalSpeed="18.44" duration="258.00" routeLength="3154.44" waitingTime="32.00" waitingCount="3" stopTime="0.00" timeLoss="87.31" rerouteNo="0" devices="tripinfo_155" vType="VM_standard_car" speedFactor="1.12" vaporized=""/>
    <tripinfo id="159" depart="2.00" departLane="Aw_1" departPos="133.22" departSpeed="0.00" departDelay="2.00" arrival="259.00" arrivalLane="n2_2" arrivalPos="227.00" arrivalSpeed="12.26" duration="257.00" routeLength="3191.07" waitingTime="34.00" waitingCount="1" stopTime="0.00" timeLoss="85.49" rerouteNo="0" devices="tripinfo_159" vType="VM_standard_car" speedFactor="1.14" vaporized=""/>
    <tripinfo id="207" depart="4.00" departLane="DB_1" departPos="385.83" departSpeed="0.00" departDelay="4.00" arrival="259.00" arrivalLane="Bn_1" arrivalPos="411.00" arrivalSpeed="15.24" duration="255.00" routeLength="3518.94" waitingTime="5.00" waitingCount="1" stopTime="0.00" timeLoss="33.72" rerouteNo="0" devices="tripinfo_207" vType="VM_standard_car" speedFactor="0.97" vaporized=""/>
    <tripinfo id="119" depart="1.00" departLane="cS_2" departPos="386.63" departSpeed="0.00" departDelay="1.00" arrival="261.00" arrivalLane="Aw_2" arrivalPos="227.00" arrivalSpeed="17.59" duration="260.00" routeLength="2955.22" waitingTime="20.00" waitingCount="3" stopTime="0.00" timeLoss="89.80" rerouteNo="0" devices="tripinfo_119" vType="VM_standard_car" speedFactor="1.07" vaporized=""/>
    <tripinfo id="095" depart="0.00" departLane="e3_2" departPos="350.09" departSpeed="0.00" departDelay="0.00" arrival="262.00" arrivalLane="n3_2" arrivalPos="228.50" arrivalSpeed="16.85" duration="262.00" routeLength="2813.77" waitingTime="27.00" waitingCount="3" stopTime="0.00" timeLoss="98.08" rerouteNo="0" devices="tripinfo_095" vType="VM_standard_car" speedFactor="1.06" vaporized=""/>
    <tripinfo id="054" depart="0.00" departLane="nA_2" departPos="41.73" departSpeed="0.00" departDelay="0.00" arrival="263.00" arrivalLane="e2_2" arrivalPos="410.00" arrivalSpeed="14.52" duration="263.00" routeLength="3475.12" waitingTime="5.00" waitingCount="1" stopTime="0.00" timeLoss="48.78" rerouteNo="0" devices="tripinfo_054" vType="VM_standard_car" speedFactor="1.00" vaporized=""/>
    <tripinfo id="202" depart="0.00" departLane="s1_1" departPos="226.68" departSpeed="0.00" departDelay="0.00" arrival="265.00" arrivalLane="e3_2" arrivalPos="411.50" arrivalSpeed="16.29" duration="265.00" routeLength="3326.10" waitingTime="13.00" waitingCount="2" stopTime="0.00" timeLoss="68.77" rerouteNo="0" devices="tripinfo_202" vType="VM_standard_car" speedFactor="1.03" vaporized=""/>
    <tripinfo id="145" depart="0.00" departLane="n1_2" departPos="54.98" departSpeed="0.00" departDelay="0.00" arrival="267.00" arrivalLane="e1_2" arrivalPos="412.50" arrivalSpeed="18.51" duration="267.00" routeLength="3289.37" waitingTime="37.00" waitingCount="2" stopTime="0.00" timeLoss="89.84" rerouteNo="0" devices="tripinfo_145" vType="VM_standard_car" speedFactor="1.14" vaporized=""/>
    <tripinfo id="022" depart="0.00" departLane="w1_2" departPos="235.79" departSpeed="0.00" departDelay="0.00" arrival="270.00" arrivalLane="n1_2" arrivalPos="228.50" arrivalSpeed="7.62" duration="270.00" routeLength="3468.00" waitingTime="9.00" waitingCount="2" stopTime="0.00" timeLoss="52.62" rerouteNo="0" devices="tripinfo_022" vType="VM_standard_car" speedFactor="0.97" vaporized=""/>
    <tripinfo id="082" depart="0.00" departLane="AB_2" departPos="110.65" departSpeed="0.00" departDelay="0.00" arrival="270.00" arrivalLane="Be_1" arrivalPos="227.00" arrivalSpeed="16.23" duration="270.00" routeLength="3405.80" waitingTime="26.00" waitingCount="1" stopTime="0.00" timeLoss="64.54" rerouteNo="0" devices="tripinfo_082" vType="VM_standard_car" speedFactor="1.02" vaporized=""/>
    <tripinfo id="226" depart="1.00" departLane="w2_1" departPos="358.40" departSpeed="0.00" departDelay="1.00" arrival="270.00" arrivalLane="s2_1" arrivalPos="227.00" arrivalSpeed="12.29" duration="269.00" routeLength="3015.53" waitingTime="52.00" waitingCount="4" stopTime="0.00" timeLoss="121.57" rerouteNo="0" devices="tripinfo_226" vType="VM_standard_car" speedFactor="1.24" vaporized=""/>
    <tripinfo id="266" depart="0.00" departLane="DB_2" departPos="97.62" departSpeed="0.00" departDelay="0.00" arrival="270.00" arrivalLane="e1_1" arrivalPos="412.50" arrivalSpeed="15.72" duration="270.00" routeLength="3586.02" waitingTime="1.00" waitingCount="1" stopTime="0.00" timeLoss="44.84" rerouteNo="0" devices="tripinfo_266" vType="VM_standard_car" speedFactor="0.98" vaporized=""/>
    <tripinfo id="290" depart="0.00" departLane="Ds_2" departPos="125.64" departSpeed="0.00" departDelay="0.00" arrival="270.00" arrivalLane="Cw_1" arrivalPos="227.00" arrivalSpeed="15.91" duration="270.00" routeLength="3393.56" waitingTime="21.00" waitingCount="2" stopTime="0.00" timeLoss="56.44" rerouteNo="0" devices="tripinfo_290" vType="VM_standard_car" speedFactor="0.97" vaporized=""/>
    <tripinfo id="295" depart="1.00" departLane="cS_2" departPos="166.85" departSpeed="0.00" departDelay="1.00" arrival="270.00" arrivalLane="e2_1" arrivalPos="410.00" arrivalSpeed="15.41" duration="269.00" routeLength="3354.93" waitingTime="8.00" waitingCount="1" stopTime="0.00" timeLoss="54.34" rerouteNo="0" devices="tripinfo_295" vType="VM_standard_car" speedFactor="0.96" vaporized=""/>
    <tripinfo id="030" depart="0.00" departLane="n3_2" departPos="146.61" departSpeed="0.00" departDelay="0.00" arrival="271.00" arrivalLane="w1_2" arrivalPos="412.50" arrivalSpeed="18.84" duration="271.00" routeLength="3411.82" waitingTime="18.00" waitingCount="2" stopTime="0.00" timeLoss="94.62" rerouteNo="0" devices="tripinfo_030" vType="VM_standard_car" speedFactor="1.18" vaporized=""/>
    <tripinfo id="076" depart="0.00" departLane="Be_2" departPos="0.19" departSpeed="0.00" departDelay="0.00" arrival="271.00" arrivalLane="n3_2" arrivalPos="228.50" arrivalSpeed="16.39" duration="271.00" routeLength="3354.49" waitingTime="7.00" waitingCount="2" stopTime="0.00" timeLoss="72.58" rerouteNo="0" devices="tripinfo_076" vType="VM_standard_car" speedFactor="1.03" vaporized=""/>
    <tripinfo id="247" depart="1.00" departLane="n3_1" departPos="82.89" departSpeed="0.00" departDelay="1.00" arrival="272.00" arrivalLane="w1_1" arrivalPos="412.50" arrivalSpeed="9.30" duration="271.00" routeLength="3453.32" waitingTime="14.00" waitingCount="1" stopTime="0.00" timeLoss="67.56" rerouteNo="0" devices="tripinfo_247" vType="VM_standard_car" speedFactor="1.04" vaporized=""/>
    <tripinfo id="094" depart="0.00" departLane="Aw_2" departPos="72.83" departSpeed="0.00" departDelay="0.00" arrival="273.00" arrivalLane="s2_1" arrivalPos="227.00" arrivalSpeed="8.44" duration="273.00" routeLength="3105.17" waitingTime="40.00" waitingCount="3" stopTime="0.00" timeLoss="99.45" rerouteNo="0" devices="tripinfo_094" vType="VM_standard_car" speedFactor="1.09" vaporized=""/>
    <tripinfo id="062" depart="0.00" departLane="Cw_2" departPos="191.93" departSpeed="0.00" departDelay="0.00" arrival="275.00" arrivalLane="s3_2" arrivalPos="228.50" arrivalSpeed="16.52" duration="275.00" routeLength="3158.44" waitingTime="22.00" waitingCount="4" stopTime="0.00" timeLoss="82.34" rerouteNo="0" devices="tripinfo_062" vType="VM_standard_car" speedFactor="1.02" vaporized=""/>
    <tripinfo id="129" depart="0.00" departLane="BD_1" departPos="196.39" departSpeed="0.00" departDelay="0.00" arrival="278.00" arrivalLane="e2_2" arrivalPos="410.00" arrivalSpeed="16.13" duration="278.00" routeLength="3512.51" waitingTime="9.00" waitingCount="3" stopTime="0.00" timeLoss="66.39" rerouteNo="0" devices="tripinfo_129" vType="VM_standard_car" speedFactor="1.01" vaporized=""/>
    <tripinfo id="157" depart="1.00" departLane="w3_1" departPos="354.63" departSpeed="0.00" departDelay="1.00" arrival="278.00" arrivalLane="s3_2" arrivalPos="228.50" arrivalSpeed="17.75" duration="277.00" routeLength="3203.80" waitingTime="30.00" waitingCount="2" stopTime="0.00" timeLoss="95.75" rerouteNo="0" devices="tripinfo_157" vType="VM_standard_car" speedFactor="1.08" vaporized=""/>
    <tripinfo id="224" depart="1.00" departLane="w2_2" departPos="154.58" departSpeed="0.00" departDelay="1.00" arrival="278.00" arrivalLane="s2_1" arrivalPos="227.00" arrivalSpeed="16.28" duration="277.00" routeLength="3213.70" waitingTime="36.00" waitingCount="3" stopTime="0.00" timeLoss="85.13" rerouteNo="0" devices="tripinfo_224" vType="VM_standard_car" speedFactor="1.02" vaporized=""/>
    <tripinfo id="142" depart="1.00" departLane="nA_1" departPos="372.31" departSpeed="0.00" departDelay="1.00" arrival="280.00" arrivalLane="s3_2" arrivalPos="228.50" arrivalSpeed="15.04" duration="279.00" routeLength="2948.91" waitingTime="22.00" waitingCount="3" stopTime="0.00" timeLoss="82.69" rerouteNo="0" devices="tripinfo_142" vType="VM_standard_car" speedFactor="0.94" vaporized=""/>
    <tripinfo id="262" depart="0.00" departLane="e1_2" departPos="409.25" departSpeed="0.00" departDelay="0.00" arrival="280.00" arrivalLane="n3_1" arrivalPos="228.50" arrivalSpeed="6.96" duration="280.00" routeLength="3138.22" waitingTime="24.00" waitingCount="3" stopTime="0.00" timeLoss="96.53" rerouteNo="0" devices="tripinfo_262" vType="VM_standard_car" speedFactor="1.04" vaporized=""/>
    <tripinfo id="086" depart="0.00" departLane="Ds_1" departPos="183.08" departSpeed="0.00" departDelay="0.00" arrival="283.00" arrivalLane="e1_2" arrivalPos="412.50" arrivalSpeed="15.89" duration="283.00" routeLength="3161.35" waitingTime="36.00" waitingCount="2" stopTime="0.00" timeLoss="87.90" rerouteNo="0" devices="tripinfo_086" vType="VM_standard_car" speedFactor="1.00" vaporized=""/>
    <tripinfo id="234" depart="0.00" departLane="AB_2" departPos="135.10" departSpeed="0.00" departDelay="0.00" arrival="283.00" arrivalLane="wA_1" arrivalPos="227.00" arrivalSpeed="14.49" duration="283.00" routeLength="3023.38" waitingTime="28.00" waitingCount="3" stopTime="0.00" timeLoss="81.19" rerouteNo="0" devices="tripinfo_234" vType="VM_standard_car" speedFactor="0.91" vaporized=""/>
    <tripinfo id="153" depart="0.00" departLane="n3_2" departPos="218.82" departSpeed="0.00" departDelay="0.00" arrival="284.00" arrivalLane="e1_1" arrivalPos="412.50" arrivalSpeed="14.57" duration="284.00" routeLength="3490.62" waitingTime="15.00" waitingCount="1" stopTime="0.00" timeLoss="53.52" rerouteNo="0" devices="tripinfo_153" vType="VM_standard_car" speedFactor="0.93" vaporized=""/>
    <tripinfo id="244" depart="1.00" departLane="n3_2" departPos="50.14" departSpeed="0.00" departDelay="1.00" arrival="285.00" arrivalLane="wA_1" arrivalPos="227.00" arrivalSpeed="16.19" duration="284.00" routeLength="3304.22" waitingTime="19.00" waitingCount="2" stopTime="0.00" timeLoss="85.87" rerouteNo="0" devices="tripinfo_244" vType="VM_standard_car" speedFactor="1.02" vaporized=""/>
    <tripinfo id="281" depart="0.00" departLane="Aw_1" departPos="39.48" departSpeed="0.00" departDelay="0.00" arrival="285.00" arrivalLane="e1_2" arrivalPos="412.50" arrivalSpeed="17.15" duration="285.00" routeLength="3084.82" waitingTime="47.00" waitingCount="4" stopTime="0.00" timeLoss="107.58" rerouteNo="0" devices="tripinfo_281" vType="VM_standard_car" speedFactor="1.08" vaporized=""/>
    <tripinfo id="165" depart="1.00" departLane="De_1" departPos="129.47" departSpeed="0.00" departDelay="1.00" arrival="286.00" arrivalLane="n2_2" arrivalPos="227.00" arrivalSpeed="14.35" duration="285.00" routeLength="3041.89" waitingTime="20.00" waitingCount="5" stopTime="0.00" timeLoss="81.53" rerouteNo="0" devices="tripinfo_165" vType="VM_standard_car" speedFactor="0.91" vaporized=""/>
    <tripinfo id="172" depart="0.00" departLane="AC_2" departPos="343.19" departSpeed="0.00" departDelay="0.00" arrival="288.00" arrivalLane="nA_1" arrivalPos="411.00" arrivalSpeed="14.63" duration="288.00" routeLength="3133.61" waitingTime="8.00" waitingCount="2" stopTime="0.00" timeLoss="70.08" rerouteNo="0" devices="tripinfo_172" vType="VM_standard_car" speedFactor="0.89" vaporized=""/>
    <tripinfo id="078" depart="0.00" departLane="Ds_2" departPos="199.43" departSpeed="0.00" departDelay="0.00" arrival="289.00" arrivalLane="e3_1" arrivalPos="411.50" arrivalSpeed="16.28" duration="289.00" routeLength="3505.69" waitingTime="37.00" waitingCount="2" stopTime="0.00" timeLoss="74.57" rerouteNo="0" devices="tripinfo_078" vType="VM_standard_car" speedFactor="1.01" vaporized=""/>
    <tripinfo id="036" depart="1.00" departLane="n2_2" departPos="115.56" departSpeed="0.00" departDelay="1.00" arrival="291.00" arrivalLane="n3_1" arrivalPos="228.50" arrivalSpeed="15.31" duration="290.00" routeLength="3401.50" waitingTime="43.00" waitingCount="2" stopTime="0.00" timeLoss="75.56" rerouteNo="0" devices="tripinfo_036" vType="VM_standard_car" speedFactor="0.97" vaporized=""/>
    <tripinfo id="214" depart="0.00" departLane="CA_2" departPos="378.98" departSpeed="0.00" departDelay="0.00" arrival="292.00" arrivalLane="s3_2" arrivalPos="228.50" arrivalSpeed="13.75" duration="292.00" routeLength="2973.61" waitingTime="25.00" waitingCount="3" stopTime="0.00" timeLoss="72.33" rerouteNo="0" devices="tripinfo_214" vType="VM_standard_car" speedFactor="0.83" vaporized=""/>
    <tripinfo id="048" depart="0.00" departLane="De_1" departPos="209.95" departSpeed="0.00" departDelay="0.00" arrival="293.00" arrivalLane="nA_1" arrivalPos="411.00" arrivalSpeed="13.59" duration="293.00" routeLength="3132.49" waitingTime="12.00" waitingCount="4" stopTime="0.00" timeLoss="73.61" rerouteNo="0" devices="tripinfo_048" vType="VM_standard_car" speedFactor="0.88" vaporized=""/>
    <tripinfo id="146" depart="0.00" departLane="e3_1" departPos="208.34" departSpeed="0.00" departDelay="0.00" arrival="294.00" arrivalLane="n3_2" arrivalPos="228.50" arrivalSpeed="14.25" duration="294.00" routeLength="2977.44" waitingTime="27.00" waitingCount="4" stopTime="0.00" timeLoss="88.69" rerouteNo="0" devices="tripinfo_146" vType="VM_standard_car" speedFactor="0.89" vaporized=""/>
    <tripinfo id="079" depart="1.00" departLane="wA_2" departPos="66.29" departSpeed="0.00" departDelay="1.00" arrival="295.00" arrivalLane="s1_2" arrivalPos="228.50" arrivalSpeed="17.70" duration="294.00" routeLength="3117.15" waitingTime="48.00" waitingCount="7" stopTime="0.00" timeLoss="118.81" rerouteNo="0" devices="tripinfo_079" vType="VM_standard_car" speedFactor="1.09" vaporized=""/>
    <tripinfo id="063" depart="0.00" departLane="Aw_2" departPos="205.30" departSpeed="0.00" departDelay="0.00" arrival="298.00" arrivalLane="w1_2" arrivalPos="412.50" arrivalSpeed="9.63" duration="298.00" routeLength="3499.40" waitingTime="41.00" waitingCount="2" stopTime="0.00" timeLoss="81.59" rerouteNo="0" devices="tripinfo_063" vType="VM_standard_car" speedFactor="0.99" vaporized=""/>
    <tripinfo id="297" depart="0.00" departLane="w1_1" departPos="313.13" departSpeed="0.00" departDelay="0.00" arrival="300.00" arrivalLane="n1_1" arrivalPos="228.50" arrivalSpeed="6.72" duration="300.00" routeLength="3385.01" waitingTime="37.00" waitingCount="4" stopTime="0.00" timeLoss="89.81" rerouteNo="0" devices="tripinfo_297" vType="VM_standard_car" speedFactor="0.98" vaporized=""/>
    <tripinfo id="267" depart="7.00" departLane="Aw_2" departPos="62.51" departSpeed="0.00" departDelay="7.00" arrival="302.00" arrivalLane="BA_1" arrivalPos="227.00" arrivalSpeed="6.12" duration="295.00" routeLength="3048.29" waitingTime="37.00" waitingCount="3" stopTime="0.00" timeLoss="88.64" rerouteNo="0" devices="tripinfo_267" vType="VM_standard_car" speedFactor="0.92" vaporized=""/>
    <tripinfo id="085" depart="0.00" departLane="e1_2" departPos="85.60" departSpeed="0.00" departDelay="0.00" arrival="304.00" arrivalLane="n1_1" arrivalPos="228.50" arrivalSpeed="7.72" duration="304.00" routeLength="3450.61" waitingTime="37.00" waitingCount="3" stopTime="0.00" timeLoss="88.09" rerouteNo="0" devices="tripinfo_085" vType="VM_standard_car" speedFactor="0.98" vaporized=""/>
    <tripinfo id="093" depart="0.00" departLane="e2_2" departPos="80.09" departSpeed="0.00" departDelay="0.00" arrival="304.00" arrivalLane="e1_1" arrivalPos="412.50" arrivalSpeed="15.02" duration="304.00" routeLength="3446.39" waitingTime="6.00" waitingCount="1" stopTime="0.00" timeLoss="76.32" rerouteNo="0" devices="tripinfo_093" vType="VM_standard_car" speedFactor="0.92" vaporized=""/>
    <tripinfo id="001" depart="0.00" departLane="e3_2" departPos="202.23" departSpeed="0.00" departDelay="0.00" arrival="305.00" arrivalLane="e2_1" arrivalPos="410.00" arrivalSpeed="14.90" duration="305.00" routeLength="3329.90" waitingTime="20.00" waitingCount="1" stopTime="0.00" timeLoss="87.48" rerouteNo="0" devices="tripinfo_001" vType="VM_standard_car" speedFactor="0.94" vaporized=""/>
    <tripinfo id="088" depart="0.00" departLane="e1_2" departPos="151.19" departSpeed="0.00" departDelay="0.00" arrival="306.00" arrivalLane="n1_1" arrivalPos="228.50" arrivalSpeed="9.45" duration="306.00" routeLength="3401.59" waitingTime="42.00" waitingCount="4" stopTime="0.00" timeLoss="100.96" rerouteNo="0" devices="tripinfo_088" vType="VM_standard_car" speedFactor="1.01" vaporized=""/>
    <tripinfo id="171" depart="0.00" departLane="BD_2" departPos="33.69" departSpeed="0.00" departDelay="0.00" arrival="308.00" arrivalLane="n1_1" arrivalPos="228.50" arrivalSpeed="12.38" duration="308.00" routeLength="3317.89" waitingTime="27.00" waitingCount="3" stopTime="0.00" timeLoss="80.74" rerouteNo="0" devices="tripinfo_171" vType="VM_standard_car" speedFactor="0.90" vaporized=""/>
    <tripinfo id="222" depart="5.00" departLane="Aw_1" departPos="17.77" departSpeed="0.00" departDelay="5.00" arrival="309.00" arrivalLane="s2_1" arrivalPos="227.00" arrivalSpeed="13.75" duration="304.00" routeLength="3148.93" waitingTime="26.00" waitingCount="3" stopTime="0.00" timeLoss="73.94" rerouteNo="0" devices="tripinfo_222" vType="VM_standard_car" speedFactor="0.84" vaporized=""/>
    <tripinfo id="194" depart="0.00" departLane="e1_2" departPos="265.75" departSpeed="0.00" departDelay="0.00" arrival="310.00" arrivalLane="n1_1" arrivalPos="228.50" arrivalSpeed="13.03" duration="310.00" routeLength="3287.03" waitingTime="33.00" waitingCount="5" stopTime="0.00" timeLoss="110.59" rerouteNo="0" devices="tripinfo_194" vType="VM_standard_car" speedFactor="1.00" vaporized=""/>
    <tripinfo id="002" depart="0.00" departLane="De_2" departPos="9.90" departSpeed="0.00" departDelay="0.00" arrival="313.00" arrivalLane="cS_2" arrivalPos="410.00" arrivalSpeed="16.70" duration="313.00" routeLength="3329.95" waitingTime="40.00" waitingCount="5" stopTime="0.00" timeLoss="111.41" rerouteNo="0" devices="tripinfo_002" vType="VM_standard_car" speedFactor="1.01" vaporized=""/>
    <tripinfo id="106" depart="0.00" departLane="e2_2" departPos="325.07" departSpeed="0.00" departDelay="0.00" arrival="313.00" arrivalLane="n2_2" arrivalPos="227.00" arrivalSpeed="16.26" duration="313.00" routeLength="3036.93" waitingTime="42.00" waitingCount="6" stopTime="0.00" timeLoss="129.10" rerouteNo="0" devices="tripinfo_106" vType="VM_standard_car" speedFactor="1.01" vaporized=""/>
    <tripinfo id="299" depart="0.00" departLane="BA_1" departPos="223.13" departSpeed="0.00" departDelay="0.00" arrival="314.00" arrivalLane="AC_2" arrivalPos="410.00" arrivalSpeed="19.18" duration="314.00" routeLength="3500.22" waitingTime="80.00" waitingCount="2" stopTime="0.00" timeLoss="128.93" rerouteNo="0" devices="tripinfo_299" vType="VM_standard_car" speedFactor="1.16" vaporized=""/>
    <tripinfo id="187" depart="0.00" departLane="Be_1" departPos="33.23" departSpeed="0.00" departDelay="0.00" arrival="315.00" arrivalLane="n1_1" arrivalPos="228.50" arrivalSpeed="14.24" duration="315.00" routeLength="3315.48" waitingTime="31.00" waitingCount="4" stopTime="0.00" timeLoss="88.15" rerouteNo="0" devices="tripinfo_187" vType="VM_standard_car" speedFactor="0.89" vaporized=""/>
    <tripinfo id="229" depart="0.00" departLane="e2_1" departPos="356.15" departSpeed="0.00" departDelay="0.00" arrival="318.00" arrivalLane="n2_2" arrivalPos="227.00" arrivalSpeed="16.56" duration="318.00" routeLength="2999.83" waitingTime="53.00" waitingCount="4" stopTime="0.00" timeLoss="134.51" rerouteNo="0" devices="tripinfo_229" vType="VM_standard_car" speedFactor="0.99" vaporized=""/>
    <tripinfo id="166" depart="0.00" departLane="Be_2" departPos="135.30" departSpeed="0.00" departDelay="0.00" arrival="319.00" arrivalLane="n1_1" arrivalPos="228.50" arrivalSpeed="6.71" duration="319.00" routeLength="3230.35" waitingTime="50.00" waitingCount="5" stopTime="0.00" timeLoss="122.91" rerouteNo="0" devices="tripinfo_166" vType="VM_standard_car" speedFactor="1.00" vaporized=""/>